 argument  1 = /home/milias/Work/open-collection/theoretical_chemistry/projects/nmr_diplomovky/reference_compounds/phosphoric_acid/nwchem/cosmo-chcl3/b3lyp_ccpvdz/h3po4.geopt_nmrshield_b3lyp_ccpvdz_cosmo-chcl3.nw
 


============================== echo of input deck ==============================
echo

start molecule

# https://nwchemgit.github.io/Memory.html
memory total 40 gb

print low

title "H3PO4"
charge 0

geometry units angstroms print xyz autosym
  load format xyz h3po4_startgeom.xyz
end

basis
  * library cc-pvdz
end

dft
  grid fine
 # grid huge
  xc b3lyp
  mult 1
# Reduce output during geometry optimization
  noprint "final vectors analysis"
  print low
end

driver
#  clear
  tight
#  linopt 0
  maxiter 9999
  xyz h3po4_geom
  print low
end

property
  giao
  shielding
end

cosmo
  solvent chcl3
end

task dft optimize
#task dft freq
task dft property

================================================================================


                                         
                                         
 
 
             Northwest Computational Chemistry Package (NWChem) 7.0.1
             --------------------------------------------------------
 
 
                    Environmental Molecular Sciences Laboratory
                       Pacific Northwest National Laboratory
                                Richland, WA 99352
 
                              Copyright (c) 1994-2020
                       Pacific Northwest National Laboratory
                            Battelle Memorial Institute
 
             NWChem is an open-source computational chemistry package
                        distributed under the terms of the
                      Educational Community License (ECL) 2.0
             A copy of the license is included with this distribution
                              in the LICENSE.TXT file
 
                                  ACKNOWLEDGMENT
                                  --------------

            This software and its documentation were developed at the
            EMSL at Pacific Northwest National Laboratory, a multiprogram
            national laboratory, operated for the U.S. Department of Energy
            by Battelle under Contract Number DE-AC05-76RL01830. Support
            for this work was provided by the Department of Energy Office
            of Biological and Environmental Research, Office of Basic
            Energy Sciences, and the Office of Advanced Scientific Computing.


           Job information
           ---------------

    hostname        = comp35.grid.umb.sk
    program         = /home/milias/Work/qch/software/nwchem_suite/nwchem_master/bin/LINUX64/nwchem
    date            = Wed Sep 29 09:14:04 2021

    compiled        = Sat_Sep_11_13:54:11_2021
    source          = /home/milias/Work/qch/software/nwchem_suite/nwchem_master
    nwchem branch   = 7.0.0
    nwchem revision = nwchem_on_git-2853-g04c637f
    ga revision     = 5.8.0
    use scalapack   = F
    input           = /home/milias/Work/open-collection/theoretical_chemistry/projects/nmr_diplomovky/reference_compounds/phosphoric_acid/nwchem/cosmo-chcl3/b3lyp_ccpvdz/h3po4.geopt_nmrshield_b3lyp_ccpvdz_cosmo-chcl3.nw
    prefix          = molecule.
    data base       = ./molecule.db
    status          = startup
    nproc           =       12
    time left       =     -1s



           Memory information
           ------------------

    heap     = 1342177276 doubles =  10240.0 Mbytes
    stack    = 1342177281 doubles =  10240.0 Mbytes
    global   = 2684354560 doubles =  20480.0 Mbytes (distinct from heap & stack)
    total    = 5368709117 doubles =  40960.0 Mbytes
    verify   = yes
    hardfail = no 


           Directory information
           ---------------------
 
  0 permanent = .
  0 scratch   = .
 
 
 
 
                                NWChem Input Module
                                -------------------
 
 
                                       H3PO4
                                       -----

 Scaling coordinates for geometry "geometry" by  1.889725989
 (inverse scale =  0.529177249)


          ------
          auto-z
          ------
  no constraints, skipping   0.000000000000000E+000
  no constraints, skipping   0.000000000000000E+000
 
 
                             Geometry "geometry" -> ""
                             -------------------------
 
 Output coordinates in angstroms (scale by  1.889725989 to convert to a.u.)
 
  No.       Tag          Charge          X              Y              Z
 ---- ---------------- ---------- -------------- -------------- --------------
    1 P                   15.0000     0.00000000    -0.00000000     0.12464916
    2 O                    8.0000     0.00000000     1.40906474    -0.60759438
    3 O                    8.0000     1.22028586    -0.70453237    -0.60759438
    4 O                    8.0000    -1.22028586    -0.70453237    -0.60759438
    5 O                    8.0000    -0.00000000     0.00000000     1.59615802
    6 H                    1.0000    -0.08717283     2.17150490    -0.01891210
    7 H                    1.0000     1.92416482    -1.01025856    -0.01891210
    8 H                    1.0000    -1.83699199    -1.16124634    -0.01891210
 
      Atomic Mass 
      ----------- 
 
      P                 30.973760
      O                 15.994910
      H                  1.007825
 

 Effective nuclear repulsion energy (a.u.)     280.7588061291

            Nuclear Dipole moment (a.u.) 
            ----------------------------
        X                 Y               Z
 ---------------- ---------------- ----------------
     0.0000000000    -0.0000000000     0.0000000000
 
      Symmetry information
      --------------------
 
 Group name             C3        
 Group number              5
 Group order               3
 No. of unique centers     4
 
      Symmetry unique atoms
 
     1    2    5    6
 


                                Z-matrix (autoz)
                                -------- 

 Units are Angstrom for bonds and degrees for angles
 
      Type          Name      I     J     K     L     M      Value
      ----------- --------  ----- ----- ----- ----- ----- ----------
    1 Stretch                  1     2                       1.58797
    2 Stretch                  1     3                       1.58797
    3 Stretch                  1     4                       1.58797
    4 Stretch                  1     5                       1.47151
    5 Stretch                  2     6                       0.96719
    6 Stretch                  3     7                       0.96719
    7 Stretch                  4     8                       0.96719
    8 Bend                     1     2     6               114.76074
    9 Bend                     1     3     7               114.76074
   10 Bend                     1     4     8               114.76074
   11 Bend                     2     1     3               100.43110
   12 Bend                     2     1     4               100.43110
   13 Bend                     2     1     5               117.45938
   14 Bend                     3     1     4               100.43110
   15 Bend                     3     1     5               117.45938
   16 Bend                     4     1     5               117.45938
   17 Torsion                  2     1     3     7         122.91750
   18 Torsion                  2     1     4     8        -134.31002
   19 Torsion                  3     1     2     6        -134.31002
   20 Torsion                  3     1     4     8         122.91750
   21 Torsion                  4     1     2     6         122.91750
   22 Torsion                  4     1     3     7        -134.31002
   23 Torsion                  5     1     2     6          -5.69626
   24 Torsion                  5     1     3     7          -5.69626
   25 Torsion                  5     1     4     8          -5.69626
 
 
            XYZ format geometry
            -------------------
     8
 geometry
 P                     0.00000000    -0.00000000     0.12464916
 O                     0.00000000     1.40906474    -0.60759438
 O                     1.22028586    -0.70453237    -0.60759438
 O                    -1.22028586    -0.70453237    -0.60759438
 O                    -0.00000000     0.00000000     1.59615802
 H                    -0.08717283     2.17150490    -0.01891210
 H                     1.92416482    -1.01025856    -0.01891210
 H                    -1.83699199    -1.16124634    -0.01891210
 
 ==============================================================================
                                internuclear distances
 ------------------------------------------------------------------------------
       center one      |      center two      | atomic units |  angstroms
 ------------------------------------------------------------------------------
    2 O                |   1 P                |     3.00083  |     1.58797
    3 O                |   1 P                |     3.00083  |     1.58797
    4 O                |   1 P                |     3.00083  |     1.58797
    5 O                |   1 P                |     2.78075  |     1.47151
    6 H                |   2 O                |     1.82773  |     0.96719
    7 H                |   3 O                |     1.82773  |     0.96719
    8 H                |   4 O                |     1.82773  |     0.96719
 ------------------------------------------------------------------------------
                         number of included internuclear distances:          7
 ==============================================================================



 ==============================================================================
                                 internuclear angles
 ------------------------------------------------------------------------------
        center 1       |       center 2       |       center 3       |  degrees
 ------------------------------------------------------------------------------
    2 O                |   1 P                |   3 O                |   100.43
    2 O                |   1 P                |   4 O                |   100.43
    2 O                |   1 P                |   5 O                |   117.46
    3 O                |   1 P                |   4 O                |   100.43
    3 O                |   1 P                |   5 O                |   117.46
    4 O                |   1 P                |   5 O                |   117.46
    1 P                |   2 O                |   6 H                |   114.76
    1 P                |   3 O                |   7 H                |   114.76
    1 P                |   4 O                |   8 H                |   114.76
 ------------------------------------------------------------------------------
                            number of included internuclear angles:          9
 ==============================================================================





 Summary of "ao basis" -> "" (cartesian)
 ------------------------------------------------------------------------------
       Tag                 Description            Shells   Functions and Types
 ---------------- ------------------------------  ------  ---------------------
 *                          cc-pvdz                   on all atoms 


 
 
                           NWChem Geometry Optimization
                           ----------------------------
 
 
 
 
                                       H3PO4
 
 
  no constraints, skipping   0.000000000000000E+000
 maximum gradient threshold         (gmax) =   0.000015
 rms gradient threshold             (grms) =   0.000010
 maximum cartesian step threshold   (xmax) =   0.000060
 rms cartesian step threshold       (xrms) =   0.000040
 fixed trust radius                (trust) =   0.300000
 maximum step size to saddle      (sadstp) =   0.100000
 energy precision                  (eprec) =   5.0D-06
 maximum number of steps          (nptopt) = 9999
 initial hessian option           (inhess) =    0
 line search option               (linopt) =    1
 hessian update option            (modupd) =    1
 saddle point option              (modsad) =    0
 initial eigen-mode to follow     (moddir) =    0
 initial variable to follow       (vardir) =    0
 follow first negative mode     (firstneg) =    T
 apply conjugacy                    (opcg) =    F
 source of zmatrix                         =   autoz   


          -------------------
          Energy Minimization
          -------------------

 
 Names of Z-matrix variables 
    1              2              3              4              5         
    6              7              8              9             10         
   11             12             13             14             15         
   16             17             18             19             20         
   21             22             23             24             25         
 
 Variables with the same non-blank name are constrained to be equal
 
 
 Using diagonal initial Hessian 
 Scaling for Hessian diagonals: bonds = 1.00  angles = 0.25  torsions = 0.10

          --------
          Step   0
          --------
 
                                 NWChem DFT Module
                                 -----------------
 
 
                                       H3PO4
 
 
                      Basis "ao basis" -> "ao basis" (cartesian)
                      -----
  P (Phosphorous)
  ---------------
            Exponent  Coefficients 
       -------------- ---------------------------------------------------------
  1 S  9.48400000E+04  0.000256
  1 S  1.42200000E+04  0.001982
  1 S  3.23600000E+03  0.010276
  1 S  9.17100000E+02  0.041482
  1 S  2.99500000E+02  0.131984
  1 S  1.08100000E+02  0.308662
  1 S  4.21800000E+01  0.420647
  1 S  1.72800000E+01  0.222878
  1 S  4.85800000E+00  0.016403
  1 S  1.81800000E+00 -0.002543
  1 S  3.37200000E-01  0.000748
 
  2 S  9.48400000E+04 -0.000070
  2 S  1.42200000E+04 -0.000535
  2 S  3.23600000E+03 -0.002837
  2 S  9.17100000E+02 -0.011398
  2 S  2.99500000E+02 -0.039293
  2 S  1.08100000E+02 -0.099636
  2 S  4.21800000E+01 -0.197983
  2 S  1.72800000E+01 -0.114860
  2 S  4.85800000E+00  0.518595
  2 S  1.81800000E+00  0.601847
  2 S  3.37200000E-01  0.036861
 
  3 S  9.48400000E+04  0.000019
  3 S  1.42200000E+04  0.000147
  3 S  3.23600000E+03  0.000778
  3 S  9.17100000E+02  0.003145
  3 S  2.99500000E+02  0.010820
  3 S  1.08100000E+02  0.027996
  3 S  4.21800000E+01  0.056398
  3 S  1.72800000E+01  0.035819
  3 S  4.85800000E+00 -0.193387
  3 S  1.81800000E+00 -0.372097
  3 S  3.37200000E-01  0.624246
 
  4 S  1.23200000E-01  1.000000
 
  5 P  3.70500000E+02  0.003950
  5 P  8.73300000E+01  0.030249
  5 P  2.75900000E+01  0.129554
  5 P  1.00000000E+01  0.327594
  5 P  3.82500000E+00  0.456992
  5 P  1.49400000E+00  0.253086
  5 P  3.92100000E-01  0.016880
 
  6 P  3.70500000E+02 -0.000960
  6 P  8.73300000E+01 -0.007112
  6 P  2.75900000E+01 -0.032712
  6 P  1.00000000E+01 -0.079578
  6 P  3.82500000E+00 -0.135016
  6 P  1.49400000E+00 -0.009106
  6 P  3.92100000E-01  0.537802
 
  7 P  1.18600000E-01  1.000000
 
  8 D  3.73000000E-01  1.000000
 
  O (Oxygen)
  ----------
            Exponent  Coefficients 
       -------------- ---------------------------------------------------------
  1 S  1.17200000E+04  0.000710
  1 S  1.75900000E+03  0.005470
  1 S  4.00800000E+02  0.027837
  1 S  1.13700000E+02  0.104800
  1 S  3.70300000E+01  0.283062
  1 S  1.32700000E+01  0.448719
  1 S  5.02500000E+00  0.270952
  1 S  1.01300000E+00  0.015458
 
  2 S  1.17200000E+04 -0.000160
  2 S  1.75900000E+03 -0.001263
  2 S  4.00800000E+02 -0.006267
  2 S  1.13700000E+02 -0.025716
  2 S  3.70300000E+01 -0.070924
  2 S  1.32700000E+01 -0.165411
  2 S  5.02500000E+00 -0.116955
  2 S  1.01300000E+00  0.557368
 
  3 S  3.02300000E-01  1.000000
 
  4 P  1.77000000E+01  0.043018
  4 P  3.85400000E+00  0.228913
  4 P  1.04600000E+00  0.508728
 
  5 P  2.75300000E-01  1.000000
 
  6 D  1.18500000E+00  1.000000
 
  H (Hydrogen)
  ------------
            Exponent  Coefficients 
       -------------- ---------------------------------------------------------
  1 S  1.30100000E+01  0.019685
  1 S  1.96200000E+00  0.137977
  1 S  4.44600000E-01  0.478148
 
  2 S  1.22000000E-01  1.000000
 
  3 P  7.27000000E-01  1.000000
 


 Summary of "ao basis" -> "ao basis" (cartesian)
 ------------------------------------------------------------------------------
       Tag                 Description            Shells   Functions and Types
 ---------------- ------------------------------  ------  ---------------------
 P                          cc-pvdz                  8       19   4s3p1d
 O                          cc-pvdz                  6       15   3s2p1d
 H                          cc-pvdz                  3        5   2s1p


 
 
 solvent parameters
 solvname_short: chcl3   
 solvname_long:  chloroform                         
 dielec:        4.7113
 dielecinf:     2.0906

          ---------------
          -cosmo- solvent
          ---------------
 Cosmo: York-Karplus, doi: 10.1021/jp992097l
 dielectric constant -eps-     =   4.71
 screen = (eps-1)/(eps    )    =   0.78774
 surface charge correction     = lagrangian
 -lineq- algorithm             =   0
 -bem- low  level              =   2
 -bem- from -octahedral-
 gaussian surface charge width =   0.98000
 degree of switching           =   1.00000
 switching function tolerance  =   0.00010
 atomic radii = 
 --------------
    1 15.000  2.106
    2  8.000  1.720
    3  8.000  1.720
    4  8.000  1.720
    5  8.000  1.720
    6  1.000  1.300
    7  1.000  1.300
    8  1.000  1.300

 solvent accessible surface
 --------------------------

 ---------- ATOMIC COORDINATES (A.U.) ------------ VDWR(ANG.) --
     1    0.00000000   -0.00000000    0.23555275     2.106
     2    0.00000000    2.66274626   -1.14818690     1.720
     3    2.30600590   -1.33137313   -1.14818690     1.720
     4   -2.30600590   -1.33137312   -1.14818690     1.720
     5   -0.00000000    0.00000000    3.01630129     1.720
     6   -0.16473277    4.10354924   -0.03573869     1.300
     7    3.63614427   -1.90911186   -0.03573869     1.300
     8   -3.47141150   -2.19443738   -0.03573869     1.300
 number of segments per atom =         32
 number of   points per atom =         32
 atom (   nspa,  nppa )
 ----------------------
    1 (     10,     0 )       0
    2 (     18,     0 )       0
    3 (     18,     0 )       0
    4 (     18,     0 )       0
    5 (     24,     0 )       0
    6 (     17,     0 )       0
    7 (     18,     0 )       0
    8 (     17,     0 )       0
 number of -cosmo- surface points =      140
 molecular surface =    105.164 angstrom**2
 molecular volume  =     57.996 angstrom**3
 G(cav/disp)       =      1.386 kcal/mol
 ...... end of -cosmo- initialization ......


  Caching 1-el integrals 
  Rotation of axis 
   Time after variat. SCF:      1.3
   Time prior to 1st pass:      1.3
  Resetting Diis


         Total DFT energy =     -644.175977612069
      One electron energy =    -1447.152376818651
           Coulomb energy =      581.059446151729
    Exchange-Corr. energy =      -59.014227925161
 Nuclear repulsion energy =      280.758806129140

             COSMO energy =        0.172374850874

 Numeric. integr. density =       50.000001006295

     Total iterative time =      5.0s


                                   COSMO solvation results
                                   -----------------------

                 gas phase energy =      -644.156704405077
                 sol phase energy =      -644.175977612069
 (electrostatic) solvation energy =         0.019273206992 (   12.09 kcal/mol)
 
                  Occupations of the irreducible representations
                  ----------------------------------------------
 
                     irrep           alpha         beta
                     --------     --------     --------
                     a                11.0         11.0
                     e+               14.0         14.0
                     e-                0.0          0.0
 
  Rotation of axis 


                         DFT ENERGY GRADIENTS

    atom               coordinates                        gradient
                 x          y          z           x          y          z
   1 P       0.000000  -0.000000   0.235553    0.000000   0.000000  -0.009089
   2 O       0.000000   2.662746  -1.148187   -0.007036  -0.023051   0.019091
   3 O       2.306006  -1.331373  -1.148187   -0.016444   0.017619   0.019091
   4 O      -2.306006  -1.331373  -1.148187    0.023480   0.005432   0.019091
   5 O      -0.000000   0.000000   3.016301    0.000000   0.000000  -0.034416
   6 H      -0.164733   4.103549  -0.035739    0.003628  -0.002744  -0.004589
   7 H       3.636144  -1.909112  -0.035739   -0.004190  -0.001770  -0.004589
   8 H      -3.471412  -2.194437  -0.035739    0.000562   0.004513  -0.004589
 
  no constraints, skipping   0.000000000000000E+000

@ Step       Energy      Delta E   Gmax     Grms     Xrms     Xmax   Walltime
@ ---- ---------------- -------- -------- -------- -------- -------- --------
@    0    -644.17597761  0.0D+00  0.03442  0.01251  0.00000  0.00000      8.4
                                                                    

  no constraints, skipping   0.000000000000000E+000
  no constraints, skipping   0.000000000000000E+000
  no constraints, skipping   0.000000000000000E+000
  no constraints, skipping   0.000000000000000E+000
 
                                 NWChem DFT Module
                                 -----------------
 
 
                                       H3PO4
 
 
 
 
 solvent parameters
 solvname_short: chcl3   
 solvname_long:  chloroform                         
 dielec:        4.7113
 dielecinf:     2.0906

          ---------------
          -cosmo- solvent
          ---------------
 Cosmo: York-Karplus, doi: 10.1021/jp992097l
 dielectric constant -eps-     =   4.71
 screen = (eps-1)/(eps    )    =   0.78774
 surface charge correction     = lagrangian
 -lineq- algorithm             =   0
 -bem- low  level              =   2
 -bem- from -octahedral-
 gaussian surface charge width =   0.98000
 degree of switching           =   1.00000
 switching function tolerance  =   0.00010
 atomic radii = 
 --------------
    1 15.000  2.106
    2  8.000  1.720
    3  8.000  1.720
    4  8.000  1.720
    5  8.000  1.720
    6  1.000  1.300
    7  1.000  1.300
    8  1.000  1.300

 solvent accessible surface
 --------------------------

 ---------- ATOMIC COORDINATES (A.U.) ------------ VDWR(ANG.) --
     1    0.00000000    0.00000000    0.23496645     2.106
     2    0.01566311    2.71583716   -1.17389056     1.720
     3    2.34415241   -1.37148323   -1.17389056     1.720
     4   -2.35981553   -1.34435392   -1.17389056     1.720
     5   -0.00000000    0.00000000    3.07026164     1.720
     6   -0.17659949    4.14594804   -0.02782638     1.300
     7    3.67879607   -1.92003437   -0.02782638     1.300
     8   -3.50219658   -2.22591366   -0.02782638     1.300
 number of segments per atom =         32
 number of   points per atom =         32
 atom (   nspa,  nppa )
 ----------------------
    1 (     10,     0 )       0
    2 (     20,     0 )       0
    3 (     18,     0 )       0
    4 (     17,     0 )       0
    5 (     24,     0 )       0
    6 (     17,     0 )       0
    7 (     18,     0 )       0
    8 (     17,     0 )       0
 number of -cosmo- surface points =      141
 molecular surface =    106.787 angstrom**2
 molecular volume  =     58.903 angstrom**3
 G(cav/disp)       =      1.394 kcal/mol
 ...... end of -cosmo- initialization ......


  Caching 1-el integrals 
  Rotation of axis 
   Time after variat. SCF:      8.6
   Time prior to 1st pass:      8.6


         Total DFT energy =     -644.180226187483
      One electron energy =    -1437.023900762797
           Coulomb energy =      575.934526696559
    Exchange-Corr. energy =      -58.932517385508
 Nuclear repulsion energy =      275.682231290442

             COSMO energy =        0.159433973820

 Numeric. integr. density =       50.000001085154

     Total iterative time =      4.7s


                                   COSMO solvation results
                                   -----------------------

                 gas phase energy =      -644.160823345449
                 sol phase energy =      -644.180226187483
 (electrostatic) solvation energy =         0.019402842034 (   12.18 kcal/mol)
 
                  Occupations of the irreducible representations
                  ----------------------------------------------
 
                     irrep           alpha         beta
                     --------     --------     --------
                     a                11.0         11.0
                     e+               14.0         14.0
                     e-                0.0          0.0
 
 Line search: 
     step= 1.00 grad=-7.9D-03 hess= 3.7D-03 energy=   -644.180226 mode=accept  
 new step= 1.00                   predicted energy=   -644.180226
  no constraints, skipping   0.000000000000000E+000
  no constraints, skipping   0.000000000000000E+000
  no constraints, skipping   0.000000000000000E+000
  no constraints, skipping   0.000000000000000E+000

          --------
          Step   1
          --------
 
                                 NWChem DFT Module
                                 -----------------
 
 
                                       H3PO4
 
 
 
 
 solvent parameters
 solvname_short: chcl3   
 solvname_long:  chloroform                         
 dielec:        4.7113
 dielecinf:     2.0906

          ---------------
          -cosmo- solvent
          ---------------
 Cosmo: York-Karplus, doi: 10.1021/jp992097l
 dielectric constant -eps-     =   4.71
 screen = (eps-1)/(eps    )    =   0.78774
 surface charge correction     = lagrangian
 -lineq- algorithm             =   0
 -bem- low  level              =   2
 -bem- from -octahedral-
 gaussian surface charge width =   0.98000
 degree of switching           =   1.00000
 switching function tolerance  =   0.00010
 atomic radii = 
 --------------
    1 15.000  2.106
    2  8.000  1.720
    3  8.000  1.720
    4  8.000  1.720
    5  8.000  1.720
    6  1.000  1.300
    7  1.000  1.300
    8  1.000  1.300

 solvent accessible surface
 --------------------------

 ---------- ATOMIC COORDINATES (A.U.) ------------ VDWR(ANG.) --
     1    0.00000000    0.00000000    0.23496645     2.106
     2    0.01566311    2.71583716   -1.17389056     1.720
     3    2.34415241   -1.37148323   -1.17389056     1.720
     4   -2.35981553   -1.34435392   -1.17389056     1.720
     5   -0.00000000    0.00000000    3.07026164     1.720
     6   -0.17659949    4.14594804   -0.02782638     1.300
     7    3.67879607   -1.92003437   -0.02782638     1.300
     8   -3.50219658   -2.22591366   -0.02782638     1.300
 number of segments per atom =         32
 number of   points per atom =         32
 atom (   nspa,  nppa )
 ----------------------
    1 (     10,     0 )       0
    2 (     20,     0 )       0
    3 (     18,     0 )       0
    4 (     17,     0 )       0
    5 (     24,     0 )       0
    6 (     17,     0 )       0
    7 (     18,     0 )       0
    8 (     17,     0 )       0
 number of -cosmo- surface points =      141
 molecular surface =    106.787 angstrom**2
 molecular volume  =     58.903 angstrom**3
 G(cav/disp)       =      1.394 kcal/mol
 ...... end of -cosmo- initialization ......



  The DFT is already converged 

         Total DFT energy =   -644.180226187483

  Rotation of axis 


                         DFT ENERGY GRADIENTS

    atom               coordinates                        gradient
                 x          y          z           x          y          z
   1 P       0.000000   0.000000   0.234966    0.000000   0.000000  -0.017417
   2 O       0.015663   2.715837  -1.173891   -0.007167  -0.006286   0.005863
   3 O       2.344152  -1.371483  -1.173891   -0.001860   0.009350   0.005863
   4 O      -2.359816  -1.344354  -1.173891    0.009028  -0.003064   0.005863
   5 O      -0.000000   0.000000   3.070262   -0.000000  -0.000000   0.002363
   6 H      -0.176599   4.145948  -0.027826    0.002840   0.002882  -0.000845
   7 H       3.678796  -1.920034  -0.027826    0.001076  -0.003901  -0.000845
   8 H      -3.502197  -2.225914  -0.027826   -0.003916   0.001018  -0.000845
 
  no constraints, skipping   0.000000000000000E+000

  Step       Energy      Delta E   Gmax     Grms     Xrms     Xmax   Walltime
  ---- ---------------- -------- -------- -------- -------- -------- --------
@    1    -644.18022619 -4.2D-03  0.00530  0.00231  0.02886  0.05405     15.4
                                                                    

  no constraints, skipping   0.000000000000000E+000
  no constraints, skipping   0.000000000000000E+000
  no constraints, skipping   0.000000000000000E+000
  no constraints, skipping   0.000000000000000E+000
  no constraints, skipping   0.000000000000000E+000
  no constraints, skipping   0.000000000000000E+000
  no constraints, skipping   0.000000000000000E+000
  no constraints, skipping   0.000000000000000E+000
 
                                 NWChem DFT Module
                                 -----------------
 
 
                                       H3PO4
 
 
 
 
 solvent parameters
 solvname_short: chcl3   
 solvname_long:  chloroform                         
 dielec:        4.7113
 dielecinf:     2.0906

          ---------------
          -cosmo- solvent
          ---------------
 Cosmo: York-Karplus, doi: 10.1021/jp992097l
 dielectric constant -eps-     =   4.71
 screen = (eps-1)/(eps    )    =   0.78774
 surface charge correction     = lagrangian
 -lineq- algorithm             =   0
 -bem- low  level              =   2
 -bem- from -octahedral-
 gaussian surface charge width =   0.98000
 degree of switching           =   1.00000
 switching function tolerance  =   0.00010
 atomic radii = 
 --------------
    1 15.000  2.106
    2  8.000  1.720
    3  8.000  1.720
    4  8.000  1.720
    5  8.000  1.720
    6  1.000  1.300
    7  1.000  1.300
    8  1.000  1.300

 solvent accessible surface
 --------------------------

 ---------- ATOMIC COORDINATES (A.U.) ------------ VDWR(ANG.) --
     1    0.00000000   -0.00000000    0.24314973     2.106
     2    0.03990894    2.72634146   -1.19170807     1.720
     3    2.34112649   -1.39773288   -1.19170807     1.720
     4   -2.38103543   -1.32860858   -1.19170807     1.720
     5    0.00000000   -0.00000000    3.08198940     1.720
     6   -0.19149747    4.12374246   -0.01664588     1.300
     7    3.66701446   -1.89602956   -0.01664588     1.300
     8   -3.47551700   -2.22771290   -0.01664588     1.300
 number of segments per atom =         32
 number of   points per atom =         32
 atom (   nspa,  nppa )
 ----------------------
    1 (     10,     0 )       0
    2 (     20,     0 )       0
    3 (     18,     0 )       0
    4 (     17,     0 )       0
    5 (     24,     0 )       0
    6 (     17,     0 )       0
    7 (     18,     0 )       0
    8 (     17,     0 )       0
 number of -cosmo- surface points =      141
 molecular surface =    106.950 angstrom**2
 molecular volume  =     59.021 angstrom**3
 G(cav/disp)       =      1.395 kcal/mol
 ...... end of -cosmo- initialization ......


  Caching 1-el integrals 
  Rotation of axis 
   Time after variat. SCF:     15.6
   Time prior to 1st pass:     15.6


         Total DFT energy =     -644.180791570735
      One electron energy =    -1434.608348368632
           Coulomb energy =      574.700763046276
    Exchange-Corr. energy =      -58.916605642591
 Nuclear repulsion energy =      274.513645978257

             COSMO energy =        0.129753415955

 Numeric. integr. density =       50.000000930567

     Total iterative time =      4.7s


                                   COSMO solvation results
                                   -----------------------

                 gas phase energy =      -644.161668123355
                 sol phase energy =      -644.180791570735
 (electrostatic) solvation energy =         0.019123447380 (   12.00 kcal/mol)
 
                  Occupations of the irreducible representations
                  ----------------------------------------------
 
                     irrep           alpha         beta
                     --------     --------     --------
                     a                11.0         11.0
                     e+               14.0         14.0
                     e-                0.0          0.0
 
 Line search: 
     step= 1.00 grad=-1.5D-03 hess= 9.2D-04 energy=   -644.180792 mode=downhill
 new step= 0.81                   predicted energy=   -644.180826
  no constraints, skipping   0.000000000000000E+000
  no constraints, skipping   0.000000000000000E+000
  no constraints, skipping   0.000000000000000E+000
  no constraints, skipping   0.000000000000000E+000
  no constraints, skipping   0.000000000000000E+000
  no constraints, skipping   0.000000000000000E+000
  no constraints, skipping   0.000000000000000E+000
  no constraints, skipping   0.000000000000000E+000

          --------
          Step   2
          --------
 
                                 NWChem DFT Module
                                 -----------------
 
 
                                       H3PO4
 
 
 
 
 solvent parameters
 solvname_short: chcl3   
 solvname_long:  chloroform                         
 dielec:        4.7113
 dielecinf:     2.0906

          ---------------
          -cosmo- solvent
          ---------------
 Cosmo: York-Karplus, doi: 10.1021/jp992097l
 dielectric constant -eps-     =   4.71
 screen = (eps-1)/(eps    )    =   0.78774
 surface charge correction     = lagrangian
 -lineq- algorithm             =   0
 -bem- low  level              =   2
 -bem- from -octahedral-
 gaussian surface charge width =   0.98000
 degree of switching           =   1.00000
 switching function tolerance  =   0.00010
 atomic radii = 
 --------------
    1 15.000  2.106
    2  8.000  1.720
    3  8.000  1.720
    4  8.000  1.720
    5  8.000  1.720
    6  1.000  1.300
    7  1.000  1.300
    8  1.000  1.300

 solvent accessible surface
 --------------------------

 ---------- ATOMIC COORDINATES (A.U.) ------------ VDWR(ANG.) --
     1    0.00000000   -0.00000000    0.24149438     2.106
     2    0.03517973    2.72435091   -1.18833249     1.720
     3    2.34176723   -1.39264199   -1.18833249     1.720
     4   -2.37694696   -1.33170891   -1.18833249     1.720
     5    0.00000000    0.00000000    3.07965046     1.720
     6   -0.18859305    4.12812040   -0.01869004     1.300
     7    3.66935366   -1.90073383   -0.01869004     1.300
     8   -3.48076061   -2.22738657   -0.01869004     1.300
 number of segments per atom =         32
 number of   points per atom =         32
 atom (   nspa,  nppa )
 ----------------------
    1 (     10,     0 )       0
    2 (     20,     0 )       0
    3 (     18,     0 )       0
    4 (     17,     0 )       0
    5 (     24,     0 )       0
    6 (     17,     0 )       0
    7 (     18,     0 )       0
    8 (     17,     0 )       0
 number of -cosmo- surface points =      141
 molecular surface =    106.931 angstrom**2
 molecular volume  =     59.004 angstrom**3
 G(cav/disp)       =      1.395 kcal/mol
 ...... end of -cosmo- initialization ......


  Caching 1-el integrals 
  Rotation of axis 
   Time after variat. SCF:     20.5
   Time prior to 1st pass:     20.5


         Total DFT energy =     -644.180741729273
      One electron energy =    -1435.070534432325
           Coulomb energy =      574.936819164275
    Exchange-Corr. energy =      -58.919645546845
 Nuclear repulsion energy =      274.737143807677

             COSMO energy =        0.135475277944

 Numeric. integr. density =       50.000000974014

     Total iterative time =      4.6s


                                   COSMO solvation results
                                   -----------------------

                 gas phase energy =      -644.161565871446
                 sol phase energy =      -644.180741729273
 (electrostatic) solvation energy =         0.019175857827 (   12.03 kcal/mol)
 
                  Occupations of the irreducible representations
                  ----------------------------------------------
 
                     irrep           alpha         beta
                     --------     --------     --------
                     a                11.0         11.0
                     e+               14.0         14.0
                     e-                0.0          0.0
 
  Rotation of axis 


                         DFT ENERGY GRADIENTS

    atom               coordinates                        gradient
                 x          y          z           x          y          z
   1 P       0.000000  -0.000000   0.241494    0.000000   0.000000  -0.008616
   2 O       0.035180   2.724351  -1.188332   -0.007145  -0.001053   0.001969
   3 O       2.341767  -1.392642  -1.188332    0.002660   0.006715   0.001969
   4 O      -2.376947  -1.331709  -1.188332    0.004485  -0.005661   0.001969
   5 O       0.000000   0.000000   3.079650   -0.000000   0.000000   0.005156
   6 H      -0.188593   4.128120  -0.018690    0.002676   0.000679  -0.000816
   7 H       3.669354  -1.900734  -0.018690   -0.000750  -0.002658  -0.000816
   8 H      -3.480761  -2.227387  -0.018690   -0.001927   0.001978  -0.000816
 
  no constraints, skipping   0.000000000000000E+000

  Step       Energy      Delta E   Gmax     Grms     Xrms     Xmax   Walltime
  ---- ---------------- -------- -------- -------- -------- -------- --------
@    2    -644.18074173 -5.2D-04  0.00516  0.00138  0.01259  0.02204     27.3
                                                                    

 Restricting large step in mode    1 eval= 1.0D-02 step=-4.1D-01 new=-3.0D-01
  no constraints, skipping   0.000000000000000E+000
  no constraints, skipping   0.000000000000000E+000
  no constraints, skipping   0.000000000000000E+000
  no constraints, skipping   0.000000000000000E+000
  no constraints, skipping   0.000000000000000E+000
  no constraints, skipping   0.000000000000000E+000
  no constraints, skipping   0.000000000000000E+000
  no constraints, skipping   0.000000000000000E+000
 
                                 NWChem DFT Module
                                 -----------------
 
 
                                       H3PO4
 
 
 
 
 solvent parameters
 solvname_short: chcl3   
 solvname_long:  chloroform                         
 dielec:        4.7113
 dielecinf:     2.0906

          ---------------
          -cosmo- solvent
          ---------------
 Cosmo: York-Karplus, doi: 10.1021/jp992097l
 dielectric constant -eps-     =   4.71
 screen = (eps-1)/(eps    )    =   0.78774
 surface charge correction     = lagrangian
 -lineq- algorithm             =   0
 -bem- low  level              =   2
 -bem- from -octahedral-
 gaussian surface charge width =   0.98000
 degree of switching           =   1.00000
 switching function tolerance  =   0.00010
 atomic radii = 
 --------------
    1 15.000  2.106
    2  8.000  1.720
    3  8.000  1.720
    4  8.000  1.720
    5  8.000  1.720
    6  1.000  1.300
    7  1.000  1.300
    8  1.000  1.300

 solvent accessible surface
 --------------------------

 ---------- ATOMIC COORDINATES (A.U.) ------------ VDWR(ANG.) --
     1    0.00000000   -0.00000000    0.24182952     2.106
     2    0.07624519    2.73660927   -1.20464465     1.720
     3    2.33185055   -1.43433490   -1.20464465     1.720
     4   -2.40809574   -1.30227437   -1.20464465     1.720
     5    0.00000000    0.00000000    3.07322165     1.720
     6   -0.21448699    4.10393954   -0.00034664     1.300
     7    3.66135939   -1.86621859   -0.00034664     1.300
     8   -3.44687240   -2.23772095   -0.00034664     1.300
 number of segments per atom =         32
 number of   points per atom =         32
 atom (   nspa,  nppa )
 ----------------------
    1 (     11,     0 )       0
    2 (     20,     0 )       0
    3 (     17,     0 )       0
    4 (     17,     0 )       0
    5 (     24,     0 )       0
    6 (     17,     0 )       0
    7 (     17,     0 )       0
    8 (     16,     0 )       0
 number of -cosmo- surface points =      139
 molecular surface =    107.035 angstrom**2
 molecular volume  =     59.078 angstrom**3
 G(cav/disp)       =      1.395 kcal/mol
 ...... end of -cosmo- initialization ......


  Caching 1-el integrals 
  Rotation of axis 
   Time after variat. SCF:     27.4
   Time prior to 1st pass:     27.4


         Total DFT energy =     -644.180964682062
      One electron energy =    -1433.273372636233
           Coulomb energy =      574.019369775586
    Exchange-Corr. energy =      -58.905029519395
 Nuclear repulsion energy =      273.872116402950

             COSMO energy =        0.105951295030

 Numeric. integr. density =       50.000000681607

     Total iterative time =      4.7s


                                   COSMO solvation results
                                   -----------------------

                 gas phase energy =      -644.162058947040
                 sol phase energy =      -644.180964682062
 (electrostatic) solvation energy =         0.018905735022 (   11.86 kcal/mol)
 
                  Occupations of the irreducible representations
                  ----------------------------------------------
 
                     irrep           alpha         beta
                     --------     --------     --------
                     a                11.0         11.0
                     e+               14.0         14.0
                     e-                0.0          0.0
 
 Line search: 
     step= 1.00 grad=-1.3D-03 hess= 1.1D-03 energy=   -644.180965 mode=downhill
 new step= 0.60                   predicted energy=   -644.181143
  no constraints, skipping   0.000000000000000E+000
  no constraints, skipping   0.000000000000000E+000
  no constraints, skipping   0.000000000000000E+000
  no constraints, skipping   0.000000000000000E+000
  no constraints, skipping   0.000000000000000E+000
  no constraints, skipping   0.000000000000000E+000
  no constraints, skipping   0.000000000000000E+000
  no constraints, skipping   0.000000000000000E+000

          --------
          Step   3
          --------
 
                                 NWChem DFT Module
                                 -----------------
 
 
                                       H3PO4
 
 
 
 
 solvent parameters
 solvname_short: chcl3   
 solvname_long:  chloroform                         
 dielec:        4.7113
 dielecinf:     2.0906

          ---------------
          -cosmo- solvent
          ---------------
 Cosmo: York-Karplus, doi: 10.1021/jp992097l
 dielectric constant -eps-     =   4.71
 screen = (eps-1)/(eps    )    =   0.78774
 surface charge correction     = lagrangian
 -lineq- algorithm             =   0
 -bem- low  level              =   2
 -bem- from -octahedral-
 gaussian surface charge width =   0.98000
 degree of switching           =   1.00000
 switching function tolerance  =   0.00010
 atomic radii = 
 --------------
    1 15.000  2.106
    2  8.000  1.720
    3  8.000  1.720
    4  8.000  1.720
    5  8.000  1.720
    6  1.000  1.300
    7  1.000  1.300
    8  1.000  1.300

 solvent accessible surface
 --------------------------

 ---------- ATOMIC COORDINATES (A.U.) ------------ VDWR(ANG.) --
     1    0.00000000   -0.00000000    0.24146649     2.106
     2    0.05964280    2.73179034   -1.19833546     1.720
     3    2.33597843   -1.41754735   -1.19833546     1.720
     4   -2.39562123   -1.31424299   -1.19833546     1.720
     5    0.00000000    0.00000000    3.07556509     1.720
     6   -0.20402271    4.11385395   -0.00731597     1.300
     7    3.66471338   -1.88023813   -0.00731597     1.300
     8   -3.46069067   -2.23361582   -0.00731597     1.300
 number of segments per atom =         32
 number of   points per atom =         32
 atom (   nspa,  nppa )
 ----------------------
    1 (     10,     0 )       0
    2 (     20,     0 )       0
    3 (     18,     0 )       0
    4 (     17,     0 )       0
    5 (     24,     0 )       0
    6 (     17,     0 )       0
    7 (     17,     0 )       0
    8 (     17,     0 )       0
 number of -cosmo- surface points =      140
 molecular surface =    107.027 angstrom**2
 molecular volume  =     59.067 angstrom**3
 G(cav/disp)       =      1.395 kcal/mol
 ...... end of -cosmo- initialization ......


  Caching 1-el integrals 
  Rotation of axis 
   Time after variat. SCF:     32.3
   Time prior to 1st pass:     32.3


         Total DFT energy =     -644.180954050408
      One electron energy =    -1433.987849573605
           Coulomb energy =      574.384197814636
    Exchange-Corr. energy =      -58.910849530956
 Nuclear repulsion energy =      274.215692179490

             COSMO energy =        0.117855060027

 Numeric. integr. density =       50.000000813384

     Total iterative time =      4.7s


                                   COSMO solvation results
                                   -----------------------

                 gas phase energy =      -644.161941534827
                 sol phase energy =      -644.180954050408
 (electrostatic) solvation energy =         0.019012515581 (   11.93 kcal/mol)
 
                  Occupations of the irreducible representations
                  ----------------------------------------------
 
                     irrep           alpha         beta
                     --------     --------     --------
                     a                11.0         11.0
                     e+               14.0         14.0
                     e-                0.0          0.0
 
  Rotation of axis 


                         DFT ENERGY GRADIENTS

    atom               coordinates                        gradient
                 x          y          z           x          y          z
   1 P       0.000000  -0.000000   0.241466    0.000000   0.000000   0.000081
   2 O       0.059643   2.731790  -1.198335   -0.006573   0.000905  -0.001701
   3 O       2.335978  -1.417547  -1.198335    0.004070   0.005240  -0.001701
   4 O      -2.395621  -1.314243  -1.198335    0.002503  -0.006145  -0.001701
   5 O       0.000000   0.000000   3.075565   -0.000000  -0.000000   0.003344
   6 H      -0.204023   4.113854  -0.007316    0.002110   0.000416   0.000560
   7 H       3.664713  -1.880238  -0.007316   -0.000695  -0.002036   0.000560
   8 H      -3.460691  -2.233616  -0.007316   -0.001416   0.001619   0.000560
 
  no constraints, skipping   0.000000000000000E+000

  Step       Energy      Delta E   Gmax     Grms     Xrms     Xmax   Walltime
  ---- ---------------- -------- -------- -------- -------- -------- --------
@    3    -644.18095405 -2.1D-04  0.00334  0.00113  0.01297  0.02527     39.2
                                                                    

 Restricting large step in mode    1 eval= 5.8D-03 step=-5.4D-01 new=-3.0D-01
  no constraints, skipping   0.000000000000000E+000
  no constraints, skipping   0.000000000000000E+000
  no constraints, skipping   0.000000000000000E+000
  no constraints, skipping   0.000000000000000E+000
  no constraints, skipping   0.000000000000000E+000
 
                                 NWChem DFT Module
                                 -----------------
 
 
                                       H3PO4
 
 
 
 
 solvent parameters
 solvname_short: chcl3   
 solvname_long:  chloroform                         
 dielec:        4.7113
 dielecinf:     2.0906

          ---------------
          -cosmo- solvent
          ---------------
 Cosmo: York-Karplus, doi: 10.1021/jp992097l
 dielectric constant -eps-     =   4.71
 screen = (eps-1)/(eps    )    =   0.78774
 surface charge correction     = lagrangian
 -lineq- algorithm             =   0
 -bem- low  level              =   2
 -bem- from -octahedral-
 gaussian surface charge width =   0.98000
 degree of switching           =   1.00000
 switching function tolerance  =   0.00010
 atomic radii = 
 --------------
    1 15.000  2.106
    2  8.000  1.720
    3  8.000  1.720
    4  8.000  1.720
    5  8.000  1.720
    6  1.000  1.300
    7  1.000  1.300
    8  1.000  1.300

 solvent accessible surface
 --------------------------

 ---------- ATOMIC COORDINATES (A.U.) ------------ VDWR(ANG.) --
     1    0.00000000    0.00000000    0.24046520     2.106
     2    0.10213727    2.73962925   -1.20378758     1.720
     3    2.32151989   -1.45826809   -1.20378758     1.720
     4   -2.42365716   -1.28136115   -1.20378758     1.720
     5    0.00000000    0.00000000    3.06812353     1.720
     6   -0.23118431    4.09479972    0.00095043     1.300
     7    3.66179274   -1.84718837    0.00095043     1.300
     8   -3.43060843   -2.24761135    0.00095043     1.300
 number of segments per atom =         32
 number of   points per atom =         32
 atom (   nspa,  nppa )
 ----------------------
    1 (     11,     0 )       0
    2 (     19,     0 )       0
    3 (     17,     0 )       0
    4 (     17,     0 )       0
    5 (     24,     0 )       0
    6 (     16,     0 )       0
    7 (     17,     0 )       0
    8 (     16,     0 )       0
 number of -cosmo- surface points =      137
 molecular surface =    107.004 angstrom**2
 molecular volume  =     59.069 angstrom**3
 G(cav/disp)       =      1.395 kcal/mol
 ...... end of -cosmo- initialization ......


  Caching 1-el integrals 
  Rotation of axis 
   Time after variat. SCF:     39.4
   Time prior to 1st pass:     39.4


         Total DFT energy =     -644.181137443531
      One electron energy =    -1433.212735437674
           Coulomb energy =      573.984658729846
    Exchange-Corr. energy =      -58.905711097828
 Nuclear repulsion energy =      273.855583710603

             COSMO energy =        0.097066651522

 Numeric. integr. density =       50.000000550495

     Total iterative time =      4.6s


                                   COSMO solvation results
                                   -----------------------

                 gas phase energy =      -644.162315604426
                 sol phase energy =      -644.181137443531
 (electrostatic) solvation energy =         0.018821839105 (   11.81 kcal/mol)
 
                  Occupations of the irreducible representations
                  ----------------------------------------------
 
                     irrep           alpha         beta
                     --------     --------     --------
                     a                11.0         11.0
                     e+               14.0         14.0
                     e-                0.0          0.0
 
 Line search: 
     step= 1.00 grad=-9.8D-04 hess= 8.0D-04 energy=   -644.181137 mode=downhill
 new step= 0.61                   predicted energy=   -644.181256
  no constraints, skipping   0.000000000000000E+000
  no constraints, skipping   0.000000000000000E+000
  no constraints, skipping   0.000000000000000E+000
  no constraints, skipping   0.000000000000000E+000

          --------
          Step   4
          --------
 
                                 NWChem DFT Module
                                 -----------------
 
 
                                       H3PO4
 
 
 
 
 solvent parameters
 solvname_short: chcl3   
 solvname_long:  chloroform                         
 dielec:        4.7113
 dielecinf:     2.0906

          ---------------
          -cosmo- solvent
          ---------------
 Cosmo: York-Karplus, doi: 10.1021/jp992097l
 dielectric constant -eps-     =   4.71
 screen = (eps-1)/(eps    )    =   0.78774
 surface charge correction     = lagrangian
 -lineq- algorithm             =   0
 -bem- low  level              =   2
 -bem- from -octahedral-
 gaussian surface charge width =   0.98000
 degree of switching           =   1.00000
 switching function tolerance  =   0.00010
 atomic radii = 
 --------------
    1 15.000  2.106
    2  8.000  1.720
    3  8.000  1.720
    4  8.000  1.720
    5  8.000  1.720
    6  1.000  1.300
    7  1.000  1.300
    8  1.000  1.300

 solvent accessible surface
 --------------------------

 ---------- ATOMIC COORDINATES (A.U.) ------------ VDWR(ANG.) --
     1    0.00000000    0.00000000    0.24064021     2.106
     2    0.08568960    2.73668981   -1.20189858     1.720
     3    2.32719809   -1.44255428   -1.20189858     1.720
     4   -2.41288770   -1.29413553   -1.20189858     1.720
     5   -0.00000000    0.00000000    3.07077895     1.720
     6   -0.22067310    4.10225333   -0.00188205     1.300
     7    3.66299215   -1.86001816   -0.00188205     1.300
     8   -3.44231905   -2.24223517   -0.00188205     1.300
 number of segments per atom =         32
 number of   points per atom =         32
 atom (   nspa,  nppa )
 ----------------------
    1 (     11,     0 )       0
    2 (     19,     0 )       0
    3 (     17,     0 )       0
    4 (     17,     0 )       0
    5 (     24,     0 )       0
    6 (     17,     0 )       0
    7 (     17,     0 )       0
    8 (     16,     0 )       0
 number of -cosmo- surface points =      138
 molecular surface =    107.032 angstrom**2
 molecular volume  =     59.079 angstrom**3
 G(cav/disp)       =      1.395 kcal/mol
 ...... end of -cosmo- initialization ......


  Caching 1-el integrals 
  Rotation of axis 
   Time after variat. SCF:     44.1
   Time prior to 1st pass:     44.1


         Total DFT energy =     -644.181090448825
      One electron energy =    -1433.509821143369
           Coulomb energy =      574.137834475162
    Exchange-Corr. energy =      -58.907685638794
 Nuclear repulsion energy =      273.993427547366

             COSMO energy =        0.105154310809

 Numeric. integr. density =       50.000000653327

     Total iterative time =      4.6s


                                   COSMO solvation results
                                   -----------------------

                 gas phase energy =      -644.162196030124
                 sol phase energy =      -644.181090448825
 (electrostatic) solvation energy =         0.018894418701 (   11.86 kcal/mol)
 
                  Occupations of the irreducible representations
                  ----------------------------------------------
 
                     irrep           alpha         beta
                     --------     --------     --------
                     a                11.0         11.0
                     e+               14.0         14.0
                     e-                0.0          0.0
 
  Rotation of axis 


                         DFT ENERGY GRADIENTS

    atom               coordinates                        gradient
                 x          y          z           x          y          z
   1 P       0.000000   0.000000   0.240640    0.000000   0.000000   0.005637
   2 O       0.085690   2.736690  -1.201899   -0.005968   0.002488  -0.003248
   3 O       2.327198  -1.442554  -1.201899    0.005139   0.003925  -0.003248
   4 O      -2.412888  -1.294136  -1.201899    0.000830  -0.006413  -0.003248
   5 O      -0.000000   0.000000   3.070779   -0.000000   0.000000   0.001237
   6 H      -0.220673   4.102253  -0.001882    0.001634  -0.000388   0.000956
   7 H       3.662992  -1.860018  -0.001882   -0.001153  -0.001221   0.000956
   8 H      -3.442319  -2.242235  -0.001882   -0.000481   0.001609   0.000956
 
  no constraints, skipping   0.000000000000000E+000

  Step       Energy      Delta E   Gmax     Grms     Xrms     Xmax   Walltime
  ---- ---------------- -------- -------- -------- -------- -------- --------
@    4    -644.18109045 -1.4D-04  0.00293  0.00124  0.01211  0.02633     50.9
                                                                    

 Restricting large step in mode    1 eval= 3.2D-03 step=-8.3D-01 new=-3.0D-01
  no constraints, skipping   0.000000000000000E+000
  no constraints, skipping   0.000000000000000E+000
  no constraints, skipping   0.000000000000000E+000
  no constraints, skipping   0.000000000000000E+000
  no constraints, skipping   0.000000000000000E+000
  no constraints, skipping   0.000000000000000E+000
  no constraints, skipping   0.000000000000000E+000
  no constraints, skipping   0.000000000000000E+000
 
                                 NWChem DFT Module
                                 -----------------
 
 
                                       H3PO4
 
 
 
 
 solvent parameters
 solvname_short: chcl3   
 solvname_long:  chloroform                         
 dielec:        4.7113
 dielecinf:     2.0906

          ---------------
          -cosmo- solvent
          ---------------
 Cosmo: York-Karplus, doi: 10.1021/jp992097l
 dielectric constant -eps-     =   4.71
 screen = (eps-1)/(eps    )    =   0.78774
 surface charge correction     = lagrangian
 -lineq- algorithm             =   0
 -bem- low  level              =   2
 -bem- from -octahedral-
 gaussian surface charge width =   0.98000
 degree of switching           =   1.00000
 switching function tolerance  =   0.00010
 atomic radii = 
 --------------
    1 15.000  2.106
    2  8.000  1.720
    3  8.000  1.720
    4  8.000  1.720
    5  8.000  1.720
    6  1.000  1.300
    7  1.000  1.300
    8  1.000  1.300

 solvent accessible surface
 --------------------------

 ---------- ATOMIC COORDINATES (A.U.) ------------ VDWR(ANG.) --
     1    0.00000000    0.00000000    0.24017743     2.106
     2    0.12824262    2.73991935   -1.19965401     1.720
     3    2.30871846   -1.48102104   -1.19965401     1.720
     4   -2.43696107   -1.25889831   -1.19965401     1.720
     5   -0.00000000    0.00000000    3.06545886     1.720
     6   -0.24841540    4.09147398   -0.00219899     1.300
     7    3.66752811   -1.83060294   -0.00219899     1.300
     8   -3.41911271   -2.26087104   -0.00219899     1.300
 number of segments per atom =         32
 number of   points per atom =         32
 atom (   nspa,  nppa )
 ----------------------
    1 (     11,     0 )       0
    2 (     19,     0 )       0
    3 (     17,     0 )       0
    4 (     17,     0 )       0
    5 (     24,     0 )       0
    6 (     16,     0 )       0
    7 (     17,     0 )       0
    8 (     16,     0 )       0
 number of -cosmo- surface points =      137
 molecular surface =    107.012 angstrom**2
 molecular volume  =     59.074 angstrom**3
 G(cav/disp)       =      1.395 kcal/mol
 ...... end of -cosmo- initialization ......


  Caching 1-el integrals 
  Rotation of axis 
   Time after variat. SCF:     51.1
   Time prior to 1st pass:     51.1


         Total DFT energy =     -644.181359959191
      One electron energy =    -1433.389191322950
           Coulomb energy =      574.073482176101
    Exchange-Corr. energy =      -58.906450244964
 Nuclear repulsion energy =      273.946884574783

             COSMO energy =        0.093914857838

 Numeric. integr. density =       50.000000435456

     Total iterative time =      4.5s


                                   COSMO solvation results
                                   -----------------------

                 gas phase energy =      -644.162537527165
                 sol phase energy =      -644.181359959191
 (electrostatic) solvation energy =         0.018822432026 (   11.81 kcal/mol)
 
                  Occupations of the irreducible representations
                  ----------------------------------------------
 
                     irrep           alpha         beta
                     --------     --------     --------
                     a                11.0         11.0
                     e+               14.0         14.0
                     e-                0.0          0.0
 
 Line search: 
     step= 1.00 grad=-8.8D-04 hess= 6.1D-04 energy=   -644.181360 mode=downhill
 new step= 0.72                   predicted energy=   -644.181408
  no constraints, skipping   0.000000000000000E+000
  no constraints, skipping   0.000000000000000E+000
  no constraints, skipping   0.000000000000000E+000
  no constraints, skipping   0.000000000000000E+000
  no constraints, skipping   0.000000000000000E+000
  no constraints, skipping   0.000000000000000E+000
  no constraints, skipping   0.000000000000000E+000
  no constraints, skipping   0.000000000000000E+000

          --------
          Step   5
          --------
 
                                 NWChem DFT Module
                                 -----------------
 
 
                                       H3PO4
 
 
 
 
 solvent parameters
 solvname_short: chcl3   
 solvname_long:  chloroform                         
 dielec:        4.7113
 dielecinf:     2.0906

          ---------------
          -cosmo- solvent
          ---------------
 Cosmo: York-Karplus, doi: 10.1021/jp992097l
 dielectric constant -eps-     =   4.71
 screen = (eps-1)/(eps    )    =   0.78774
 surface charge correction     = lagrangian
 -lineq- algorithm             =   0
 -bem- low  level              =   2
 -bem- from -octahedral-
 gaussian surface charge width =   0.98000
 degree of switching           =   1.00000
 switching function tolerance  =   0.00010
 atomic radii = 
 --------------
    1 15.000  2.106
    2  8.000  1.720
    3  8.000  1.720
    4  8.000  1.720
    5  8.000  1.720
    6  1.000  1.300
    7  1.000  1.300
    8  1.000  1.300

 solvent accessible surface
 --------------------------

 ---------- ATOMIC COORDINATES (A.U.) ------------ VDWR(ANG.) --
     1   -0.00000000    0.00000000    0.24013909     2.106
     2    0.11629865    2.73908085   -1.20045239     1.720
     3    2.31396427   -1.47025801   -1.20045239     1.720
     4   -2.43026292   -1.26882284   -1.20045239     1.720
     5    0.00000000    0.00000000    3.06678249     1.720
     6   -0.24062946    4.09455349   -0.00182905     1.300
     7    3.66630207   -1.83888552   -0.00182905     1.300
     8   -3.42567261   -2.25566797   -0.00182905     1.300
 number of segments per atom =         32
 number of   points per atom =         32
 atom (   nspa,  nppa )
 ----------------------
    1 (     11,     0 )       0
    2 (     19,     0 )       0
    3 (     17,     0 )       0
    4 (     17,     0 )       0
    5 (     24,     0 )       0
    6 (     16,     0 )       0
    7 (     17,     0 )       0
    8 (     16,     0 )       0
 number of -cosmo- surface points =      137
 molecular surface =    107.027 angstrom**2
 molecular volume  =     59.080 angstrom**3
 G(cav/disp)       =      1.395 kcal/mol
 ...... end of -cosmo- initialization ......


  Caching 1-el integrals 
  Rotation of axis 
   Time after variat. SCF:     55.8
   Time prior to 1st pass:     55.8


         Total DFT energy =     -644.181286432385
      One electron energy =    -1433.422708341768
           Coulomb energy =      574.091379298871
    Exchange-Corr. energy =      -58.906799052733
 Nuclear repulsion energy =      273.959718327247

             COSMO energy =        0.097123335998

 Numeric. integr. density =       50.000000503565

     Total iterative time =      4.7s


                                   COSMO solvation results
                                   -----------------------

                 gas phase energy =      -644.162444847197
                 sol phase energy =      -644.181286432385
 (electrostatic) solvation energy =         0.018841585187 (   11.82 kcal/mol)
 
                  Occupations of the irreducible representations
                  ----------------------------------------------
 
                     irrep           alpha         beta
                     --------     --------     --------
                     a                11.0         11.0
                     e+               14.0         14.0
                     e-                0.0          0.0
 
  Rotation of axis 


                         DFT ENERGY GRADIENTS

    atom               coordinates                        gradient
                 x          y          z           x          y          z
   1 P      -0.000000   0.000000   0.240139    0.000000   0.000000   0.008771
   2 O       0.116299   2.739081  -1.200452   -0.005154   0.002850  -0.004013
   3 O       2.313964  -1.470258  -1.200452    0.005045   0.003038  -0.004013
   4 O      -2.430263  -1.268823  -1.200452    0.000108  -0.005888  -0.004013
   5 O       0.000000   0.000000   3.066782   -0.000000   0.000000  -0.000852
   6 H      -0.240629   4.094553  -0.001829    0.001024  -0.000677   0.001374
   7 H       3.666302  -1.838886  -0.001829   -0.001098  -0.000548   0.001374
   8 H      -3.425673  -2.255668  -0.001829    0.000074   0.001225   0.001374
 
  no constraints, skipping   0.000000000000000E+000

  Step       Energy      Delta E   Gmax     Grms     Xrms     Xmax   Walltime
  ---- ---------------- -------- -------- -------- -------- -------- --------
@    5    -644.18128643 -2.0D-04  0.00315  0.00129  0.01331  0.03066     62.7
                                                                    

 Restricting large step in mode    1 eval= 2.1D-03 step=-1.2D+00 new=-3.0D-01
  no constraints, skipping   0.000000000000000E+000
  no constraints, skipping   0.000000000000000E+000
  no constraints, skipping   0.000000000000000E+000
  no constraints, skipping   0.000000000000000E+000
  no constraints, skipping   0.000000000000000E+000
  no constraints, skipping   0.000000000000000E+000
  no constraints, skipping   0.000000000000000E+000
  no constraints, skipping   0.000000000000000E+000
 
                                 NWChem DFT Module
                                 -----------------
 
 
                                       H3PO4
 
 
 
 
 solvent parameters
 solvname_short: chcl3   
 solvname_long:  chloroform                         
 dielec:        4.7113
 dielecinf:     2.0906

          ---------------
          -cosmo- solvent
          ---------------
 Cosmo: York-Karplus, doi: 10.1021/jp992097l
 dielectric constant -eps-     =   4.71
 screen = (eps-1)/(eps    )    =   0.78774
 surface charge correction     = lagrangian
 -lineq- algorithm             =   0
 -bem- low  level              =   2
 -bem- from -octahedral-
 gaussian surface charge width =   0.98000
 degree of switching           =   1.00000
 switching function tolerance  =   0.00010
 atomic radii = 
 --------------
    1 15.000  2.106
    2  8.000  1.720
    3  8.000  1.720
    4  8.000  1.720
    5  8.000  1.720
    6  1.000  1.300
    7  1.000  1.300
    8  1.000  1.300

 solvent accessible surface
 --------------------------

 ---------- ATOMIC COORDINATES (A.U.) ------------ VDWR(ANG.) --
     1    0.00000000   -0.00000000    0.24165411     2.106
     2    0.15752998    2.73787067   -1.19067220     1.720
     3    2.29230057   -1.50536030   -1.19067220     1.720
     4   -2.44983054   -1.23251038   -1.19067220     1.720
     5    0.00000000    0.00000000    3.06594640     1.720
     6   -0.26804079    4.09103770   -0.01183554     1.300
     7    3.67696297   -1.81338872   -0.01183554     1.300
     8   -3.40892218   -2.27764898   -0.01183554     1.300
 number of segments per atom =         32
 number of   points per atom =         32
 atom (   nspa,  nppa )
 ----------------------
    1 (     11,     0 )       0
    2 (     19,     0 )       0
    3 (     17,     0 )       0
    4 (     17,     0 )       0
    5 (     24,     0 )       0
    6 (     16,     0 )       0
    7 (     18,     0 )       0
    8 (     16,     0 )       0
 number of -cosmo- surface points =      138
 molecular surface =    107.009 angstrom**2
 molecular volume  =     59.073 angstrom**3
 G(cav/disp)       =      1.395 kcal/mol
 ...... end of -cosmo- initialization ......


  Caching 1-el integrals 
  Rotation of axis 
   Time after variat. SCF:     62.9
   Time prior to 1st pass:     62.9


         Total DFT energy =     -644.181691587785
      One electron energy =    -1433.843788655672
           Coulomb energy =      574.303957973231
    Exchange-Corr. energy =      -58.909621817569
 Nuclear repulsion energy =      274.173539657468

             COSMO energy =        0.094221254757

 Numeric. integr. density =       50.000000319285

     Total iterative time =      4.7s


                                   COSMO solvation results
                                   -----------------------

                 gas phase energy =      -644.162814259861
                 sol phase energy =      -644.181691587785
 (electrostatic) solvation energy =         0.018877327924 (   11.85 kcal/mol)
 
                  Occupations of the irreducible representations
                  ----------------------------------------------
 
                     irrep           alpha         beta
                     --------     --------     --------
                     a                11.0         11.0
                     e+               14.0         14.0
                     e-                0.0          0.0
 
 Line search: 
     step= 1.00 grad=-8.6D-04 hess= 4.6D-04 energy=   -644.181692 mode=accept  
 new step= 1.00                   predicted energy=   -644.181692
  no constraints, skipping   0.000000000000000E+000
  no constraints, skipping   0.000000000000000E+000
  no constraints, skipping   0.000000000000000E+000
  no constraints, skipping   0.000000000000000E+000
  no constraints, skipping   0.000000000000000E+000
  no constraints, skipping   0.000000000000000E+000
  no constraints, skipping   0.000000000000000E+000
  no constraints, skipping   0.000000000000000E+000

          --------
          Step   6
          --------
 
                                 NWChem DFT Module
                                 -----------------
 
 
                                       H3PO4
 
 
 
 
 solvent parameters
 solvname_short: chcl3   
 solvname_long:  chloroform                         
 dielec:        4.7113
 dielecinf:     2.0906

          ---------------
          -cosmo- solvent
          ---------------
 Cosmo: York-Karplus, doi: 10.1021/jp992097l
 dielectric constant -eps-     =   4.71
 screen = (eps-1)/(eps    )    =   0.78774
 surface charge correction     = lagrangian
 -lineq- algorithm             =   0
 -bem- low  level              =   2
 -bem- from -octahedral-
 gaussian surface charge width =   0.98000
 degree of switching           =   1.00000
 switching function tolerance  =   0.00010
 atomic radii = 
 --------------
    1 15.000  2.106
    2  8.000  1.720
    3  8.000  1.720
    4  8.000  1.720
    5  8.000  1.720
    6  1.000  1.300
    7  1.000  1.300
    8  1.000  1.300

 solvent accessible surface
 --------------------------

 ---------- ATOMIC COORDINATES (A.U.) ------------ VDWR(ANG.) --
     1    0.00000000   -0.00000000    0.24165411     2.106
     2    0.15752998    2.73787067   -1.19067220     1.720
     3    2.29230057   -1.50536030   -1.19067220     1.720
     4   -2.44983054   -1.23251038   -1.19067220     1.720
     5    0.00000000    0.00000000    3.06594640     1.720
     6   -0.26804079    4.09103770   -0.01183554     1.300
     7    3.67696297   -1.81338872   -0.01183554     1.300
     8   -3.40892218   -2.27764898   -0.01183554     1.300
 number of segments per atom =         32
 number of   points per atom =         32
 atom (   nspa,  nppa )
 ----------------------
    1 (     11,     0 )       0
    2 (     19,     0 )       0
    3 (     17,     0 )       0
    4 (     17,     0 )       0
    5 (     24,     0 )       0
    6 (     16,     0 )       0
    7 (     18,     0 )       0
    8 (     16,     0 )       0
 number of -cosmo- surface points =      138
 molecular surface =    107.009 angstrom**2
 molecular volume  =     59.073 angstrom**3
 G(cav/disp)       =      1.395 kcal/mol
 ...... end of -cosmo- initialization ......



  The DFT is already converged 

         Total DFT energy =   -644.181691587785

  Rotation of axis 


                         DFT ENERGY GRADIENTS

    atom               coordinates                        gradient
                 x          y          z           x          y          z
   1 P       0.000000  -0.000000   0.241654    0.000000   0.000000   0.008444
   2 O       0.157530   2.737871  -1.190672   -0.004212   0.002245  -0.003271
   3 O       2.292301  -1.505360  -1.190672    0.004050   0.002525  -0.003271
   4 O      -2.449831  -1.232510  -1.190672    0.000162  -0.004770  -0.003271
   5 O       0.000000   0.000000   3.065946   -0.000000   0.000000  -0.002570
   6 H      -0.268041   4.091038  -0.011836    0.000302  -0.000802   0.001313
   7 H       3.676963  -1.813389  -0.011836   -0.000846   0.000139   0.001313
   8 H      -3.408922  -2.277649  -0.011836    0.000543   0.000663   0.001313
 
  no constraints, skipping   0.000000000000000E+000

  Step       Energy      Delta E   Gmax     Grms     Xrms     Xmax   Walltime
  ---- ---------------- -------- -------- -------- -------- -------- --------
@    6    -644.18169159 -4.1D-04  0.00257  0.00108  0.01830  0.04097     69.8
                                                                    

 Restricting large step in mode    1 eval= 2.0D-03 step=-1.1D+00 new=-3.0D-01
  no constraints, skipping   0.000000000000000E+000
  no constraints, skipping   0.000000000000000E+000
  no constraints, skipping   0.000000000000000E+000
  no constraints, skipping   0.000000000000000E+000
  no constraints, skipping   0.000000000000000E+000
  no constraints, skipping   0.000000000000000E+000
  no constraints, skipping   0.000000000000000E+000
  no constraints, skipping   0.000000000000000E+000
 
                                 NWChem DFT Module
                                 -----------------
 
 
                                       H3PO4
 
 
 
 
 solvent parameters
 solvname_short: chcl3   
 solvname_long:  chloroform                         
 dielec:        4.7113
 dielecinf:     2.0906

          ---------------
          -cosmo- solvent
          ---------------
 Cosmo: York-Karplus, doi: 10.1021/jp992097l
 dielectric constant -eps-     =   4.71
 screen = (eps-1)/(eps    )    =   0.78774
 surface charge correction     = lagrangian
 -lineq- algorithm             =   0
 -bem- low  level              =   2
 -bem- from -octahedral-
 gaussian surface charge width =   0.98000
 degree of switching           =   1.00000
 switching function tolerance  =   0.00010
 atomic radii = 
 --------------
    1 15.000  2.106
    2  8.000  1.720
    3  8.000  1.720
    4  8.000  1.720
    5  8.000  1.720
    6  1.000  1.300
    7  1.000  1.300
    8  1.000  1.300

 solvent accessible surface
 --------------------------

 ---------- ATOMIC COORDINATES (A.U.) ------------ VDWR(ANG.) --
     1   -0.00000000    0.00000000    0.24782192     2.106
     2    0.19641020    2.73252586   -1.17505551     1.720
     3    2.26823171   -1.53635915   -1.17505551     1.720
     4   -2.46464191   -1.19616670   -1.17505551     1.720
     5    0.00000000   -0.00000000    3.07403963     1.720
     6   -0.29450892    4.09471350   -0.03220591     1.300
     7    3.69338037   -1.79230454   -0.03220591     1.300
     8   -3.39887145   -2.30240896   -0.03220591     1.300
 number of segments per atom =         32
 number of   points per atom =         32
 atom (   nspa,  nppa )
 ----------------------
    1 (     12,     0 )       0
    2 (     19,     0 )       0
    3 (     17,     0 )       0
    4 (     17,     0 )       0
    5 (     24,     0 )       0
    6 (     17,     0 )       0
    7 (     18,     0 )       0
    8 (     16,     0 )       0
 number of -cosmo- surface points =      140
 molecular surface =    106.948 angstrom**2
 molecular volume  =     59.036 angstrom**3
 G(cav/disp)       =      1.395 kcal/mol
 ...... end of -cosmo- initialization ......


  Caching 1-el integrals 
  Rotation of axis 
   Time after variat. SCF:     69.9
   Time prior to 1st pass:     69.9


         Total DFT energy =     -644.182122562408
      One electron energy =    -1434.464906145767
           Coulomb energy =      574.620750134739
    Exchange-Corr. energy =      -58.913361279430
 Nuclear repulsion energy =      274.476559811728

             COSMO energy =        0.098834916322

 Numeric. integr. density =       50.000000224494

     Total iterative time =      4.6s


                                   COSMO solvation results
                                   -----------------------

                 gas phase energy =      -644.163092391570
                 sol phase energy =      -644.182122562408
 (electrostatic) solvation energy =         0.019030170838 (   11.94 kcal/mol)
 
                  Occupations of the irreducible representations
                  ----------------------------------------------
 
                     irrep           alpha         beta
                     --------     --------     --------
                     a                11.0         11.0
                     e+               14.0         14.0
                     e-                0.0          0.0
 
 Line search: 
     step= 1.00 grad=-7.6D-04 hess= 3.3D-04 energy=   -644.182123 mode=downhill
 new step= 1.15                   predicted energy=   -644.182130
  no constraints, skipping   0.000000000000000E+000
  no constraints, skipping   0.000000000000000E+000
  no constraints, skipping   0.000000000000000E+000
  no constraints, skipping   0.000000000000000E+000
  no constraints, skipping   0.000000000000000E+000
  no constraints, skipping   0.000000000000000E+000
  no constraints, skipping   0.000000000000000E+000
  no constraints, skipping   0.000000000000000E+000

          --------
          Step   7
          --------
 
                                 NWChem DFT Module
                                 -----------------
 
 
                                       H3PO4
 
 
 
 
 solvent parameters
 solvname_short: chcl3   
 solvname_long:  chloroform                         
 dielec:        4.7113
 dielecinf:     2.0906

          ---------------
          -cosmo- solvent
          ---------------
 Cosmo: York-Karplus, doi: 10.1021/jp992097l
 dielectric constant -eps-     =   4.71
 screen = (eps-1)/(eps    )    =   0.78774
 surface charge correction     = lagrangian
 -lineq- algorithm             =   0
 -bem- low  level              =   2
 -bem- from -octahedral-
 gaussian surface charge width =   0.98000
 degree of switching           =   1.00000
 switching function tolerance  =   0.00010
 atomic radii = 
 --------------
    1 15.000  2.106
    2  8.000  1.720
    3  8.000  1.720
    4  8.000  1.720
    5  8.000  1.720
    6  1.000  1.300
    7  1.000  1.300
    8  1.000  1.300

 solvent accessible surface
 --------------------------

 ---------- ATOMIC COORDINATES (A.U.) ------------ VDWR(ANG.) --
     1   -0.00000000    0.00000000    0.24890782     2.106
     2    0.20231042    2.73165593   -1.17251481     1.720
     3    2.26452822   -1.54103393   -1.17251481     1.720
     4   -2.46683864   -1.19062200   -1.17251481     1.720
     5   -0.00000000    0.00000000    3.07542245     1.720
     6   -0.29852506    4.09522108   -0.03556952     1.300
     7    3.69582802   -1.78908025   -0.03556952     1.300
     8   -3.39730296   -2.30614083   -0.03556952     1.300
 number of segments per atom =         32
 number of   points per atom =         32
 atom (   nspa,  nppa )
 ----------------------
    1 (     12,     0 )       0
    2 (     19,     0 )       0
    3 (     17,     0 )       0
    4 (     17,     0 )       0
    5 (     24,     0 )       0
    6 (     17,     0 )       0
    7 (     18,     0 )       0
    8 (     16,     0 )       0
 number of -cosmo- surface points =      140
 molecular surface =    106.925 angstrom**2
 molecular volume  =     59.023 angstrom**3
 G(cav/disp)       =      1.395 kcal/mol
 ...... end of -cosmo- initialization ......


  Caching 1-el integrals 
  Rotation of axis 
[...]


  Step       Energy      Delta E   Gmax     Grms     Xrms     Xmax   Walltime
  ---- ---------------- -------- -------- -------- -------- -------- --------
@   17    -644.18311367 -1.6D-09  0.00000  0.00000  0.00000  0.00000    184.4
                                     ok       ok       ok       ok  

 
 
                         Geometry "geometry" -> "geometry"
                         ---------------------------------
 
 Output coordinates in angstroms (scale by  1.889725989 to convert to a.u.)
 
  No.       Tag          Charge          X              Y              Z
 ---- ---------------- ---------- -------------- -------------- --------------
    1 P                   15.0000     0.00000000     0.00000000     0.15185345
    2 O                    8.0000     0.17542033     1.43887478    -0.59534236
    3 O                    8.0000     1.15839195    -0.87135585    -0.59534236
    4 O                    8.0000    -1.33381228    -0.56751893    -0.59534236
    5 O                    8.0000    -0.00000000     0.00000000     1.64933195
    6 H                    1.0000    -0.20324147     2.16035797    -0.05795687
    7 H                    1.0000     1.97254562    -0.90416671    -0.05795687
    8 H                    1.0000    -1.76930415    -1.25619126    -0.05795687
 
      Atomic Mass 
      ----------- 
 
      P                 30.973760
      O                 15.994910
      H                  1.007825
 

 Effective nuclear repulsion energy (a.u.)     274.6770473082

            Nuclear Dipole moment (a.u.) 
            ----------------------------
        X                 Y               Z
 ---------------- ---------------- ----------------
     0.0000000000    -0.0000000000     1.9093228409
 
      Symmetry information
      --------------------
 
 Group name             C3        
 Group number              5
 Group order               3
 No. of unique centers     4
 
      Symmetry unique atoms
 
     1    2    5    6
 
 
                Final and change from initial internal coordinates
                --------------------------------------------------
 


                                Z-matrix (autoz)
                                -------- 

 Units are Angstrom for bonds and degrees for angles
 
      Type          Name      I     J     K     L     M      Value       Change
      ----------- --------  ----- ----- ----- ----- ----- ---------- ----------
    1 Stretch                  1     2                       1.63078    0.04281
    2 Stretch                  1     3                       1.63078    0.04281
    3 Stretch                  1     4                       1.63078    0.04281
    4 Stretch                  1     5                       1.49748    0.02597
    5 Stretch                  2     6                       0.97607    0.00887
    6 Stretch                  3     7                       0.97607    0.00887
    7 Stretch                  4     8                       0.97607    0.00887
    8 Bend                     1     2     6               110.98981   -3.77093
    9 Bend                     1     3     7               110.98981   -3.77093
   10 Bend                     1     4     8               110.98981   -3.77093
   11 Bend                     2     1     3               100.66704    0.23594
   12 Bend                     2     1     4               100.66704    0.23594
   13 Bend                     2     1     5               117.26998   -0.18941
   14 Bend                     3     1     4               100.66704    0.23594
   15 Bend                     3     1     5               117.26998   -0.18941
   16 Bend                     4     1     5               117.26998   -0.18941
   17 Torsion                  2     1     3     7          97.88634  -25.03116
   18 Torsion                  2     1     4     8        -158.98453  -24.67451
   19 Torsion                  3     1     2     6        -158.98453  -24.67451
   20 Torsion                  3     1     4     8          97.88634  -25.03116
   21 Torsion                  4     1     2     6          97.88634  -25.03116
   22 Torsion                  4     1     3     7        -158.98453  -24.67451
   23 Torsion                  5     1     2     6         -30.54910  -24.85284
   24 Torsion                  5     1     3     7         -30.54910  -24.85284
   25 Torsion                  5     1     4     8         -30.54910  -24.85284
 
 
 
                                NWChem Input Module
                                -------------------
 
 
                              NWChem Property Module
                              ----------------------
 
 
                                 NWChem DFT Module
                                 -----------------
 
 
                                       H3PO4
 
 
 
 
 solvent parameters
 solvname_short: chcl3   
 solvname_long:  chloroform                         
 dielec:        4.7113
 dielecinf:     2.0906

          ---------------
          -cosmo- solvent
          ---------------
 Cosmo: York-Karplus, doi: 10.1021/jp992097l
 dielectric constant -eps-     =   4.71
 screen = (eps-1)/(eps    )    =   0.78774
 surface charge correction     = lagrangian
 -lineq- algorithm             =   0
 -bem- low  level              =   2
 -bem- from -octahedral-
 gaussian surface charge width =   0.98000
 degree of switching           =   1.00000
 switching function tolerance  =   0.00010
 atomic radii = 
 --------------
    1 15.000  2.106
    2  8.000  1.720
    3  8.000  1.720
    4  8.000  1.720
    5  8.000  1.720
    6  1.000  1.300
    7  1.000  1.300
    8  1.000  1.300

 solvent accessible surface
 --------------------------

 ---------- ATOMIC COORDINATES (A.U.) ------------ VDWR(ANG.) --
     1    0.00000000    0.00000000    0.28696142     2.106
     2    0.33149635    2.71907907   -1.12503393     1.720
     3    2.18904337   -1.64662379   -1.12503393     1.720
     4   -2.52053972   -1.07245527   -1.12503393     1.720
     5   -0.00000000    0.00000000    3.11678545     1.720
     6   -0.38407068    4.08248460   -0.10952260     1.300
     7    3.72757071   -1.70862733   -0.10952260     1.300
     8   -3.34350003   -2.37385727   -0.10952260     1.300
 number of segments per atom =         32
 number of   points per atom =         32
 atom (   nspa,  nppa )
 ----------------------
    1 (     12,     0 )       0
    2 (     19,     0 )       0
    3 (     17,     0 )       0
    4 (     18,     0 )       0
    5 (     24,     0 )       0
    6 (     17,     0 )       0
    7 (     17,     0 )       0
    8 (     16,     0 )       0
 number of -cosmo- surface points =      140
 molecular surface =    105.417 angstrom**2
 molecular volume  =     58.211 angstrom**3
 G(cav/disp)       =      1.387 kcal/mol
 ...... end of -cosmo- initialization ......


  Caching 1-el integrals 
   Time after variat. SCF:    184.5
   Time prior to 1st pass:    184.5


         Total DFT energy =     -644.183116748107
      One electron energy =    -1434.860083300424
           Coulomb energy =      574.817098460860
    Exchange-Corr. energy =      -58.914744024829
 Nuclear repulsion energy =      274.677047308200

             COSMO energy =        0.097564808086

 Numeric. integr. density =       49.999999807203

     Total iterative time =      9.4s


                                   COSMO solvation results
                                   -----------------------

                 gas phase energy =      -644.163795888453
                 sol phase energy =      -644.183116748107
 (electrostatic) solvation energy =         0.019320859654 (   12.12 kcal/mol)

          -----------------------------------------
          Chemical Shielding Tensors (GIAO, in ppm)
          -----------------------------------------

 
 solvent parameters
 solvname_short: chcl3   
 solvname_long:  chloroform                         
 dielec:        4.7113
 dielecinf:     2.0906

          ---------------
          -cosmo- solvent
          ---------------
 Cosmo: York-Karplus, doi: 10.1021/jp992097l
 dielectric constant -eps-     =   4.71
 screen = (eps-1)/(eps    )    =   0.78774
 surface charge correction     = lagrangian
 -lineq- algorithm             =   0
 -bem- low  level              =   2
 -bem- from -octahedral-
 gaussian surface charge width =   0.98000
 degree of switching           =   1.00000
 switching function tolerance  =   0.00010
 atomic radii = 
 --------------
    1 15.000  2.106
    2  8.000  1.720
    3  8.000  1.720
    4  8.000  1.720
    5  8.000  1.720
    6  1.000  1.300
    7  1.000  1.300
    8  1.000  1.300

 solvent accessible surface
 --------------------------

 ---------- ATOMIC COORDINATES (A.U.) ------------ VDWR(ANG.) --
     1    0.00000000    0.00000000    0.28696142     2.106
     2    0.33149635    2.71907907   -1.12503393     1.720
     3    2.18904337   -1.64662379   -1.12503393     1.720
     4   -2.52053972   -1.07245527   -1.12503393     1.720
     5   -0.00000000    0.00000000    3.11678545     1.720
     6   -0.38407068    4.08248460   -0.10952260     1.300
     7    3.72757071   -1.70862733   -0.10952260     1.300
     8   -3.34350003   -2.37385727   -0.10952260     1.300
 number of segments per atom =         32
 number of   points per atom =         32
 atom (   nspa,  nppa )
 ----------------------
    1 (     12,     0 )       0
    2 (     19,     0 )       0
    3 (     17,     0 )       0
    4 (     18,     0 )       0
    5 (     24,     0 )       0
    6 (     17,     0 )       0
    7 (     17,     0 )       0
    8 (     16,     0 )       0
 number of -cosmo- surface points =      140
 molecular surface =    105.417 angstrom**2
 molecular volume  =     58.211 angstrom**3
 G(cav/disp)       =      1.387 kcal/mol
 ...... end of -cosmo- initialization ......


 SCF residual:   1.481610382884360E-005

 Wrote CPHF data to ./molecule.shieldcphf

 Calc. par tensor-> nonrel
      Atom:    1  P 
        Diamagnetic
    973.0181      0.0039     -0.0055
      0.0039    973.0250     -0.0078
     -0.0055     -0.0078    968.8146

        Paramagnetic
   -657.9387      0.0110      0.2041
      0.0110   -658.0604      0.0734
      0.2041      0.0734   -483.7217

        Total Shielding Tensor
    315.0794      0.0149      0.1986
      0.0149    314.9646      0.0656
      0.1986      0.0656    485.0929

           isotropic =     371.7123
          anisotropy =     170.0713

          Principal Components and Axis System
                 1           2           3
              485.0932    315.0811    314.9626

      1         0.0012      0.9920     -0.1265
      2         0.0004      0.1265      0.9920
      3         1.0000     -0.0012     -0.0002



      Atom:    2  O 
        Diamagnetic
    371.5428     -3.4874     -5.6589
     -3.4874    409.9312     -4.3618
     -5.6589     -4.3618    378.9612

        Paramagnetic
   -169.3182      7.1311      7.0844
      7.1311   -130.2534    -46.6166
      7.0844    -46.6166   -157.2535

        Total Shielding Tensor
    202.2245      3.6437      1.4254
      3.6437    279.6777    -50.9784
      1.4254    -50.9784    221.7076

           isotropic =     234.5366
          anisotropy =     112.2806

          Principal Components and Axis System
                 1           2           3
              309.3904    203.0246    191.1950

      1         0.0227      0.9629     -0.2688
      2         0.8644      0.1162      0.4891
      3        -0.5022      0.2435      0.8298



      Atom:    3  O 
        Diamagnetic
    403.4144    -14.8649     -0.9252
    -14.8649    378.1744      7.0413
     -0.9252      7.0413    379.0007

        Paramagnetic
   -145.5770    -20.6309    -43.7652
    -20.6309   -153.0772     17.2373
    -43.7652     17.2373   -156.9598

        Total Shielding Tensor
    257.8374    -35.4958    -44.6904
    -35.4958    225.0972     24.2786
    -44.6904     24.2786    222.0409

           isotropic =     234.9918
          anisotropy =     112.3483

          Principal Components and Axis System
                 1           2           3
              309.8907    203.2902    191.7947

      1         0.7382      0.3838      0.5548
      2        -0.4523      0.8917     -0.0151
      3        -0.5005     -0.2398      0.8319



      Atom:    4  O 
        Diamagnetic
    397.3459     18.3755      6.5785
     18.3755    384.2089     -2.7011
      6.5785     -2.7011    378.9726

        Paramagnetic
   -133.4095     13.3535     36.8977
     13.3535   -165.4846     29.5657
     36.8977     29.5657   -157.3433

        Total Shielding Tensor
    263.9364     31.7290     43.4761
     31.7290    218.7243     26.8646
     43.4761     26.8646    221.6294

           isotropic =     234.7634
          anisotropy =     112.5355

          Principal Components and Axis System
                 1           2           3
              309.7870    203.3840    191.1190

      1         0.7607     -0.5818     -0.2878
      2         0.4128      0.7758     -0.4773
      3         0.5009      0.2442      0.8303



      Atom:    5  O 
        Diamagnetic
    386.0814     -0.0034      0.0056
     -0.0034    386.0838     -0.0619
      0.0056     -0.0619    421.2517

        Paramagnetic
   -221.8505     -0.2477      0.1005
     -0.2477   -222.0169     -0.1439
      0.1005     -0.1439   -184.4756

        Total Shielding Tensor
    164.2309     -0.2512      0.1061
     -0.2512    164.0669     -0.2058
      0.1061     -0.2058    236.7761

           isotropic =     188.3579
          anisotropy =      72.6283

          Principal Components and Axis System
                 1           2           3
              236.7768    164.4125    163.8845

      1         0.0015      0.8098      0.5867
      2        -0.0028     -0.5867      0.8098
      3         1.0000     -0.0029      0.0014



      Atom:    6  H 
        Diamagnetic
     22.0462     -6.0350     -3.6803
     -6.0350     42.7801      5.5637
     -3.6803      5.5637     25.1613

        Paramagnetic
      0.9768      1.7515      1.7347
      1.7515     -5.8148     -1.4668
      1.7347     -1.4668     -1.2922

        Total Shielding Tensor
     23.0229     -4.2835     -1.9457
     -4.2835     36.9653      4.0969
     -1.9457      4.0969     23.8691

           isotropic =      27.9524
          anisotropy =      17.2632

          Principal Components and Axis System
                 1           2           3
               39.4613     23.0236     21.3725

      1        -0.2728     -0.4291      0.8611
      2         0.9216     -0.3735      0.1059
      3         0.2762      0.8224      0.4973



      Atom:    7  H 
        Diamagnetic
     42.8244     -5.9490      6.6644
     -5.9490     22.0149      0.4026
      6.6644      0.4026     25.1812

        Paramagnetic
     -5.6309      2.0660     -2.1259
      2.0660      0.7659     -0.7644
     -2.1259     -0.7644     -1.3110

        Total Shielding Tensor
     37.1934     -3.8830      4.5385
     -3.8830     22.7808     -0.3618
      4.5385     -0.3618     23.8703

           isotropic =      27.9482
          anisotropy =      17.2793

          Principal Components and Axis System
                 1           2           3
               39.4677     23.0156     21.3612

      1         0.9345     -0.1104      0.3384
      2        -0.2235      0.5582      0.7991
      3         0.2771      0.8223     -0.4970



      Atom:    8  H 
        Diamagnetic
     32.3398     11.9931     -2.9841
     11.9931     32.4420     -5.9795
     -2.9841     -5.9795     25.1472

        Paramagnetic
     -2.6486     -3.8081      0.4017
     -3.8081     -2.2536      2.2275
      0.4017      2.2275     -1.3133

        Total Shielding Tensor
     29.6912      8.1849     -2.5824
      8.1849     30.1884     -3.7520
     -2.5824     -3.7520     23.8339

           isotropic =      27.9045
          anisotropy =      17.2806

          Principal Components and Axis System
                 1           2           3
               39.4249     22.9740     21.3146

      1         0.6604      0.5371      0.5248
      2         0.6978     -0.1808     -0.6931
      3        -0.2773      0.8239     -0.4942



 
 
                                NWChem Input Module
                                -------------------
 
 
 
 
                                     CITATION
                                     --------
                Please cite the following reference when publishing
                           results obtained with NWChem:
 
          E. Apra, E. J. Bylaska, W. A. de Jong, N. Govind, K. Kowalski,
       T. P. Straatsma, M. Valiev, H. J. J. van Dam, Y. Alexeev, J. Anchell,
       V. Anisimov, F. W. Aquino, R. Atta-Fynn, J. Autschbach, N. P. Bauman,
     J. C. Becca, D. E. Bernholdt, K. Bhaskaran-Nair, S. Bogatko, P. Borowski,
         J. Boschen, J. Brabec, A. Bruner, E. Cauet, Y. Chen, G. N. Chuev,
      C. J. Cramer, J. Daily, M. J. O. Deegan, T. H. Dunning Jr., M. Dupuis,
   K. G. Dyall, G. I. Fann, S. A. Fischer, A. Fonari, H. Fruchtl, L. Gagliardi,
      J. Garza, N. Gawande, S. Ghosh, K. Glaesemann, A. W. Gotz, J. Hammond,
       V. Helms, E. D. Hermes, K. Hirao, S. Hirata, M. Jacquelin, L. Jensen,
   B. G. Johnson, H. Jonsson, R. A. Kendall, M. Klemm, R. Kobayashi, V. Konkov,
      S. Krishnamoorthy, M. Krishnan, Z. Lin, R. D. Lins, R. J. Littlefield,
      A. J. Logsdail, K. Lopata, W. Ma, A. V. Marenich, J. Martin del Campo,
   D. Mejia-Rodriguez, J. E. Moore, J. M. Mullin, T. Nakajima, D. R. Nascimento,
    J. A. Nichols, P. J. Nichols, J. Nieplocha, A. Otero-de-la-Roza, B. Palmer,
    A. Panyala, T. Pirojsirikul, B. Peng, R. Peverati, J. Pittner, L. Pollack,
   R. M. Richard, P. Sadayappan, G. C. Schatz, W. A. Shelton, D. W. Silverstein,
   D. M. A. Smith, T. A. Soares, D. Song, M. Swart, H. L. Taylor, G. S. Thomas,
            V. Tipparaju, D. G. Truhlar, K. Tsemekhman, T. Van Voorhis,
      A. Vazquez-Mayagoitia, P. Verma, O. Villa, A. Vishnu, K. D. Vogiatzis,
        D. Wang, J. H. Weare, M. J. Williamson, T. L. Windus, K. Wolinski,
        A. T. Wong, Q. Wu, C. Yang, Q. Yu, M. Zacharias, Z. Zhang, Y. Zhao,
                                and R. J. Harrison
                        "NWChem: Past, present, and future
                         J. Chem. Phys. 152, 184102 (2020)
                               doi:10.1063/5.0004997
 
                                      AUTHORS
                                      -------
     E. Apra, E. J. Bylaska, N. Govind, K. Kowalski, M. Valiev, W. A. de Jong,
      T. P. Straatsma, H. J. J. van Dam, D. Wang, T. L. Windus, N. P. Bauman,
       A. Panyala, J. Hammond, J. Autschbach, K. Bhaskaran-Nair, J. Brabec,
    K. Lopata, S. A. Fischer, S. Krishnamoorthy, M. Jacquelin, W. Ma, M. Klemm,
       O. Villa, Y. Chen, V. Anisimov, F. Aquino, S. Hirata, M. T. Hackler,
           Eric Hermes, L. Jensen, J. E. Moore, J. C. Becca, V. Konjkov,
            D. Mejia-Rodriguez, T. Risthaus, M. Malagoli, A. Marenich,
   A. Otero-de-la-Roza, J. Mullin, P. Nichols, R. Peverati, J. Pittner, Y. Zhao,
        P.-D. Fan, A. Fonari, M. J. Williamson, R. J. Harrison, J. R. Rehr,
      M. Dupuis, D. Silverstein, D. M. A. Smith, J. Nieplocha, V. Tipparaju,
      M. Krishnan, B. E. Van Kuiken, A. Vazquez-Mayagoitia, M. Swart, Q. Wu,
   T. Van Voorhis, A. A. Auer, M. Nooijen, L. D. Crosby, E. Brown, G. Cisneros,
     G. I. Fann, H. Fruchtl, J. Garza, K. Hirao, R. A. Kendall, J. A. Nichols,
       K. Tsemekhman, K. Wolinski, J. Anchell, D. E. Bernholdt, P. Borowski,
       T. Clark, D. Clerc, H. Dachsel, M. J. O. Deegan, K. Dyall, D. Elwood,
      E. Glendening, M. Gutowski, A. C. Hess, J. Jaffe, B. G. Johnson, J. Ju,
        R. Kobayashi, R. Kutteh, Z. Lin, R. Littlefield, X. Long, B. Meng,
      T. Nakajima, S. Niu, L. Pollack, M. Rosing, K. Glaesemann, G. Sandrone,
      M. Stave, H. Taylor, G. Thomas, J. H. van Lenthe, A. T. Wong, Z. Zhang.

 Total times  cpu:      235.4s     wall:      238.6s
