
     Program PWSCF v.7.1 starts on  9Jul2022 at 19:38: 7 
        Git branch: develop
        Last git commit: d50f574154e75c88044778d91e67d6e00f487b1e
        Last git commit date: Mon Jun 20 17:16:00 2022 +0000
        Last git commit subject: Merge branch 'small-doc-fixes' into 'develop'

     This program is part of the open-source Quantum ESPRESSO suite
     for quantum simulation of materials; please cite
         "P. Giannozzi et al., J. Phys.:Condens. Matter 21 395502 (2009);
         "P. Giannozzi et al., J. Phys.:Condens. Matter 29 465901 (2017);
         "P. Giannozzi et al., J. Chem. Phys. 152 154105 (2020);
          URL http://www.quantum-espresso.org", 
     in publications or presentations arising from this work. More details at
     http://www.quantum-espresso.org/quote

     Parallel version (MPI & OpenMP), running on       8 processor cores
     Number of MPI processes:                 8
     Threads/MPI process:                     1

     MPI processes distributed on     1 nodes
     122476 MiB available memory on the printing compute node when the environment starts
 
     Waiting for input...
     Reading input from standard input

     Current dimensions of program PWSCF are:
     Max number of different atomic species (ntypx) = 10
     Max number of k-points (npk) =  40000
     Max angular momentum in pseudopotentials (lmaxx) =  4

    ============================================================
    |  pseudopotential report for atomic species:  2           |
    |        pseudo potential version   7   3   2              |
    ------------------------------------------------------------
    |  hydrogen            PBE                  exchange-corr  |
    |  z =   1.    zv( 2) =   1.    exfact =   5.00000         |
    |  ifpcor =  0           atomic energy =  -0.91772 Ry      |
    |  index    orbital      occupation    energy              |
    |    1        100           1.00       -0.48               |
    |  rinner =  0.5000                                        |
    |    new generation scheme:                                |
    |    nbeta =  1     kkbeta =  271     rcloc =    0.6000    |
    |    ibeta    l     epsilon   rcut                         |
    |      1       0      -0.48   0.80                         |
    ============================================================
 
     R & G space division:  proc/nbgrp/npool/nimage =       8
     Subspace diagonalization in iterative solution of the eigenvalue problem:
     a serial algorithm will be used

 
     Parallelization info
     --------------------
     sticks:   dense  smooth     PW     G-vecs:    dense   smooth      PW
     Min         508     508    138                51973    51973    7380
     Max         509     509    139                51976    51976    7387
     Sum        4067    4067   1111               415795   415795   59085
 
     Using Slab Decomposition
 


     bravais-lattice index     =            8
     lattice parameter (alat)  =      29.2337  a.u.
     unit-cell volume          =   18737.6348 (a.u.)^3
     number of atoms/cell      =           56
     number of atomic types    =            2
     number of electrons       =       176.00
     number of Kohn-Sham states=          106
     kinetic-energy cutoff     =      30.0000  Ry
     charge density cutoff     =     120.0000  Ry
     scf convergence threshold =      1.0E-07
     mixing beta               =       0.7000
     number of iterations used =            8  plain     mixing
     energy convergence thresh.=      5.0E-05
     force convergence thresh. =      5.0E-04
     Exchange-correlation= PBE
                           (   1   4   3   4   0   0   0)
     nstep                     =          200


     GPU acceleration is ACTIVE.


     celldm(1)=  29.233748  celldm(2)=   0.500000  celldm(3)=   1.500000
     celldm(4)=   0.000000  celldm(5)=   0.000000  celldm(6)=   0.000000

     crystal axes: (cart. coord. in units of alat)
               a(1) = (   1.000000   0.000000   0.000000 )  
               a(2) = (   0.000000   0.500000   0.000000 )  
               a(3) = (   0.000000   0.000000   1.500000 )  

     reciprocal axes: (cart. coord. in units 2 pi/alat)
               b(1) = (  1.000000  0.000000  0.000000 )  
               b(2) = (  0.000000  2.000000  0.000000 )  
               b(3) = (  0.000000  0.000000  0.666667 )  


     PseudoPot. # 1 for Si read from file:
     ./Si_r.upf
     MD5 check sum: c84abb4b0aac9c93a8e9f74896432a0a
     Pseudo is Norm-conserving + core correction, Zval =  4.0
     Generated using ONCVPSP code by D. R. Hamann
     Using radial grid of 1528 points,  6 beta functions with: 
                l(1) =   0
                l(2) =   0
                l(3) =   1
                l(4) =   1
                l(5) =   2
                l(6) =   2

     PseudoPot. # 2 for hy read from file:
     ./H_US.van
     MD5 check sum: a9a9bfe98ff56cf4de197d71fc46bb44
     Pseudo is Ultrasoft, Zval =  1.0
     Generated by Vanderbilt code, v. 7.3.2
     Using radial grid of  399 points,  1 beta functions with: 
                l(1) =   0
     Q(r) pseudized with  8 coefficients,  rinner =    0.500

     atomic species   valence    mass     pseudopotential
        Si             4.00    28.08550     Si( 1.00)
        H              1.00     1.00784     hy( 1.00)

     No symmetry found



   Cartesian axes

     site n.     atom                  positions (alat units)
         1           H   tau(   1) = (   0.0000000  -0.0675500  -0.0675500  )
         2           H   tau(   2) = (   0.0000000   0.0675500  -0.0675500  )
         3           H   tau(   3) = (   0.2500000  -0.0675500  -0.0675500  )
         4           H   tau(   4) = (   0.2500000   0.0675500  -0.0675500  )
         5           H   tau(   5) = (   0.2500000   0.1824500  -0.0675500  )
         6           H   tau(   6) = (   0.2500000   0.3175500  -0.0675500  )
         7           H   tau(   7) = (   0.5000000   0.1824500  -0.0675500  )
         8           H   tau(   8) = (   0.5000000   0.3175500  -0.0675500  )
         9           H   tau(   9) = (   0.7500000   0.1824500  -0.0675500  )
        10           H   tau(  10) = (   0.7500000   0.3175500  -0.0675500  )
        11           H   tau(  11) = (   0.0000000   0.1824500  -0.0675500  )
        12           H   tau(  12) = (   0.0000000   0.3175500  -0.0675500  )
        13           H   tau(  13) = (   0.5000000  -0.0675500  -0.0675500  )
        14           H   tau(  14) = (   0.5000000   0.0675500  -0.0675500  )
        15           H   tau(  15) = (   0.7500000  -0.0675500  -0.0675500  )
        16           H   tau(  16) = (   0.7500000   0.0675500  -0.0675500  )
        17           Si  tau(  17) = (   0.0000000   0.0000000   0.0000000  )
        18           Si  tau(  18) = (   0.2500000   0.0000000   0.0000000  )
        19           Si  tau(  19) = (   0.0000000   0.2500000   0.0000000  )
        20           Si  tau(  20) = (   0.2500000   0.2500000   0.0000000  )
        21           Si  tau(  21) = (   0.5000000   0.0000000   0.0000000  )
        22           Si  tau(  22) = (   0.7500000   0.0000000   0.0000000  )
        23           Si  tau(  23) = (   0.5000000   0.2500000   0.0000000  )
        24           Si  tau(  24) = (   0.7500000   0.2500000   0.0000000  )
        25           Si  tau(  25) = (   0.1250000   0.0000000   0.0883883  )
        26           Si  tau(  26) = (   0.3750000   0.0000000   0.0883883  )
        27           Si  tau(  27) = (   0.1250000   0.2500000   0.0883883  )
        28           Si  tau(  28) = (   0.3750000   0.2500000   0.0883883  )
        29           Si  tau(  29) = (   0.6250000   0.0000000   0.0883883  )
        30           Si  tau(  30) = (   0.8750000   0.0000000   0.0883883  )
        31           Si  tau(  31) = (   0.6250000   0.2500000   0.0883883  )
        32           Si  tau(  32) = (   0.8750000   0.2500000   0.0883883  )
        33           Si  tau(  33) = (   0.6250000   0.3750000   0.1767767  )
        34           Si  tau(  34) = (   0.1250000   0.1250000   0.1767767  )
        35           Si  tau(  35) = (   0.3750000   0.1250000   0.1767767  )
        36           Si  tau(  36) = (   0.3750000   0.3750000   0.1767767  )
        37           Si  tau(  37) = (   0.8750000   0.1250000   0.1767767  )
        38           Si  tau(  38) = (   0.8750000   0.3750000   0.1767767  )
        39           Si  tau(  39) = (   0.1250000   0.3750000   0.1767767  )
        40           Si  tau(  40) = (   0.6250000   0.1250000   0.1767767  )
        41           Si  tau(  41) = (   0.7500000   0.3750000   0.2651650  )
        42           Si  tau(  42) = (   0.2500000   0.1250000   0.2651650  )
        43           Si  tau(  43) = (   0.5000000   0.1250000   0.2651650  )
        44           Si  tau(  44) = (   0.5000000   0.3750000   0.2651650  )
        45           Si  tau(  45) = (   0.0000000   0.1250000   0.2651650  )
        46           Si  tau(  46) = (   0.0000000   0.3750000   0.2651650  )
        47           Si  tau(  47) = (   0.2500000   0.3750000   0.2651650  )
        48           Si  tau(  48) = (   0.7500000   0.1250000   0.2651650  )
        49           Si  tau(  49) = (   0.0010000   0.0000000   0.3535534  )
        50           Si  tau(  50) = (   0.2490000   0.0000000   0.3535534  )
        51           Si  tau(  51) = (   0.0020000   0.2500000   0.3535534  )
        52           Si  tau(  52) = (   0.2480000   0.2500000   0.3535534  )
        53           Si  tau(  53) = (   0.5020000   0.0000000   0.3535534  )
        54           Si  tau(  54) = (   0.7490000   0.0000000   0.3535534  )
        55           Si  tau(  55) = (   0.5010000   0.2500000   0.3535534  )
        56           Si  tau(  56) = (   0.7470000   0.2500000   0.3535534  )

     number of k points=     6  Gaussian smearing, width (Ry)=  0.0050
                       cart. coord. in units 2pi/alat
        k(    1) = (   0.0000000   0.0000000   0.0000000), wk =   0.2500000
        k(    2) = (   0.0000000   0.5000000   0.0000000), wk =   0.5000000
        k(    3) = (   0.0000000  -1.0000000   0.0000000), wk =   0.2500000
        k(    4) = (  -0.5000000   0.0000000   0.0000000), wk =   0.2500000
        k(    5) = (  -0.5000000   0.5000000   0.0000000), wk =   0.5000000
        k(    6) = (  -0.5000000  -1.0000000   0.0000000), wk =   0.2500000

     Dense  grid:   415795 G-vectors     FFT dimensions: ( 108,  54, 160)

     Estimated max dynamical RAM per process >     245.85 MB

     Estimated total dynamical RAM >       1.92 GB

     Initial potential from superposition of free atoms

     starting charge     175.9753, renormalised to     176.0000

     negative rho (up, down):  1.152E-02 0.000E+00
     Starting wfcs are  176 randomized atomic wfcs

     total cpu time spent up to now is        7.4 secs

     per-process dynamical memory:   610.2 Mb

     Self-consistent Calculation

     iteration #  1     ecut=    30.00 Ry     beta= 0.70
     Davidson diagonalization with overlap
     ethr =  1.00E-02,  avg # of iterations =  3.0

     negative rho (up, down):  1.467E-02 0.000E+00

     total cpu time spent up to now is       12.7 secs

     total energy              =    -355.06885564 Ry
     estimated scf accuracy    <       2.08151082 Ry

     iteration #  2     ecut=    30.00 Ry     beta= 0.70
     Davidson diagonalization with overlap
     ethr =  1.18E-03,  avg # of iterations =  6.5

     negative rho (up, down):  1.441E-02 0.000E+00

     total cpu time spent up to now is       18.4 secs

     total energy              =    -352.35083347 Ry
     estimated scf accuracy    <      18.22097982 Ry

     iteration #  3     ecut=    30.00 Ry     beta= 0.70
     Davidson diagonalization with overlap
     ethr =  1.18E-03,  avg # of iterations =  7.0

     negative rho (up, down):  1.493E-02 0.000E+00

     total cpu time spent up to now is       24.5 secs

     total energy              =    -355.15738919 Ry
     estimated scf accuracy    <       5.45381677 Ry

     iteration #  4     ecut=    30.00 Ry     beta= 0.70
     Davidson diagonalization with overlap
     ethr =  1.18E-03,  avg # of iterations =  2.5

     negative rho (up, down):  1.546E-02 0.000E+00

     total cpu time spent up to now is       28.5 secs

     total energy              =    -355.38689131 Ry
     estimated scf accuracy    <       0.99183668 Ry

     iteration #  5     ecut=    30.00 Ry     beta= 0.70
     Davidson diagonalization with overlap
     ethr =  5.64E-04,  avg # of iterations =  2.8

     negative rho (up, down):  1.567E-02 0.000E+00

     total cpu time spent up to now is       32.5 secs

     total energy              =    -355.36621297 Ry
     estimated scf accuracy    <       2.72184643 Ry

     iteration #  6     ecut=    30.00 Ry     beta= 0.70
     Davidson diagonalization with overlap
     ethr =  5.64E-04,  avg # of iterations =  1.3

     negative rho (up, down):  1.607E-02 0.000E+00

     total cpu time spent up to now is       36.1 secs

     total energy              =    -355.46080999 Ry
     estimated scf accuracy    <       0.30354808 Ry

     iteration #  7     ecut=    30.00 Ry     beta= 0.70
     Davidson diagonalization with overlap
     ethr =  1.72E-04,  avg # of iterations =  4.2

     negative rho (up, down):  1.611E-02 0.000E+00

     total cpu time spent up to now is       40.2 secs

     total energy              =    -355.46657870 Ry
     estimated scf accuracy    <       0.34623788 Ry

     iteration #  8     ecut=    30.00 Ry     beta= 0.70
     Davidson diagonalization with overlap
     ethr =  1.72E-04,  avg # of iterations =  1.2

     negative rho (up, down):  1.622E-02 0.000E+00

     total cpu time spent up to now is       43.7 secs

     total energy              =    -355.47501530 Ry
     estimated scf accuracy    <       0.12177123 Ry

     iteration #  9     ecut=    30.00 Ry     beta= 0.70
     Davidson diagonalization with overlap
     ethr =  6.92E-05,  avg # of iterations =  7.7

     negative rho (up, down):  1.632E-02 0.000E+00

     total cpu time spent up to now is       48.2 secs

     total energy              =    -355.47649192 Ry
     estimated scf accuracy    <       0.03942265 Ry

     iteration # 10     ecut=    30.00 Ry     beta= 0.70
     Davidson diagonalization with overlap
     c_bands:  1 eigenvalues not converged
     ethr =  2.24E-05,  avg # of iterations =  9.3

     negative rho (up, down):  1.648E-02 0.000E+00

     total cpu time spent up to now is       53.4 secs

     total energy              =    -355.47576065 Ry
     estimated scf accuracy    <       0.01490967 Ry

     iteration # 11     ecut=    30.00 Ry     beta= 0.70
     Davidson diagonalization with overlap
     c_bands:  1 eigenvalues not converged
     c_bands:  1 eigenvalues not converged
     ethr =  8.47E-06,  avg # of iterations = 13.7

     negative rho (up, down):  1.654E-02 0.000E+00

     total cpu time spent up to now is       60.2 secs

     total energy              =    -355.47701278 Ry
     estimated scf accuracy    <       0.00365418 Ry

     iteration # 12     ecut=    30.00 Ry     beta= 0.70
     Davidson diagonalization with overlap
     ethr =  2.08E-06,  avg # of iterations = 10.3

     negative rho (up, down):  1.653E-02 0.000E+00

     total cpu time spent up to now is       66.5 secs

     total energy              =    -355.47754304 Ry
     estimated scf accuracy    <       0.00150155 Ry

     iteration # 13     ecut=    30.00 Ry     beta= 0.70
     Davidson diagonalization with overlap
     ethr =  8.53E-07,  avg # of iterations =  2.0

     negative rho (up, down):  1.653E-02 0.000E+00

     total cpu time spent up to now is       70.4 secs

     total energy              =    -355.47763630 Ry
     estimated scf accuracy    <       0.00107682 Ry

     iteration # 14     ecut=    30.00 Ry     beta= 0.70
     Davidson diagonalization with overlap
     ethr =  6.12E-07,  avg # of iterations =  2.0

     negative rho (up, down):  1.652E-02 0.000E+00

     total cpu time spent up to now is       74.2 secs

     total energy              =    -355.47771898 Ry
     estimated scf accuracy    <       0.00050162 Ry

     iteration # 15     ecut=    30.00 Ry     beta= 0.70
     Davidson diagonalization with overlap
     ethr =  2.85E-07,  avg # of iterations =  1.7

     negative rho (up, down):  1.652E-02 0.000E+00

     total cpu time spent up to now is       77.8 secs

     total energy              =    -355.47772927 Ry
     estimated scf accuracy    <       0.00028105 Ry

     iteration # 16     ecut=    30.00 Ry     beta= 0.70
     Davidson diagonalization with overlap
     ethr =  1.60E-07,  avg # of iterations =  1.2

     negative rho (up, down):  1.652E-02 0.000E+00

     total cpu time spent up to now is       81.3 secs

     total energy              =    -355.47775677 Ry
     estimated scf accuracy    <       0.00011339 Ry

     iteration # 17     ecut=    30.00 Ry     beta= 0.70
     Davidson diagonalization with overlap
     ethr =  6.44E-08,  avg # of iterations =  2.0

     negative rho (up, down):  1.652E-02 0.000E+00

     total cpu time spent up to now is       85.1 secs

     total energy              =    -355.47776247 Ry
     estimated scf accuracy    <       0.00004763 Ry

     iteration # 18     ecut=    30.00 Ry     beta= 0.70
     Davidson diagonalization with overlap
     ethr =  2.71E-08,  avg # of iterations =  1.0

     negative rho (up, down):  1.652E-02 0.000E+00

     total cpu time spent up to now is       88.6 secs

     total energy              =    -355.47776261 Ry
     estimated scf accuracy    <       0.00005891 Ry

     iteration # 19     ecut=    30.00 Ry     beta= 0.70
     Davidson diagonalization with overlap
     ethr =  2.71E-08,  avg # of iterations =  1.0

     negative rho (up, down):  1.652E-02 0.000E+00

     total cpu time spent up to now is       92.0 secs

     total energy              =    -355.47776533 Ry
     estimated scf accuracy    <       0.00004839 Ry

     iteration # 20     ecut=    30.00 Ry     beta= 0.70
     Davidson diagonalization with overlap
     ethr =  2.71E-08,  avg # of iterations =  1.0

     negative rho (up, down):  1.652E-02 0.000E+00

     total cpu time spent up to now is       95.5 secs

     total energy              =    -355.47776692 Ry
     estimated scf accuracy    <       0.00000342 Ry

     iteration # 21     ecut=    30.00 Ry     beta= 0.70
     Davidson diagonalization with overlap
     ethr =  1.94E-09,  avg # of iterations =  1.7

     negative rho (up, down):  1.652E-02 0.000E+00

     total cpu time spent up to now is       99.1 secs

     total energy              =    -355.47776727 Ry
     estimated scf accuracy    <       0.00000046 Ry

     iteration # 22     ecut=    30.00 Ry     beta= 0.70
     Davidson diagonalization with overlap
     ethr =  2.60E-10,  avg # of iterations =  3.5

     negative rho (up, down):  1.652E-02 0.000E+00

     total cpu time spent up to now is      103.7 secs

     total energy              =    -355.47776732 Ry
     estimated scf accuracy    <       0.00000036 Ry

     iteration # 23     ecut=    30.00 Ry     beta= 0.70
     Davidson diagonalization with overlap
     ethr =  2.07E-10,  avg # of iterations =  2.0

     negative rho (up, down):  1.652E-02 0.000E+00

     total cpu time spent up to now is      107.8 secs

     total energy              =    -355.47776735 Ry
     estimated scf accuracy    <       0.00000026 Ry

     iteration # 24     ecut=    30.00 Ry     beta= 0.70
     Davidson diagonalization with overlap
     ethr =  1.49E-10,  avg # of iterations =  1.5

     negative rho (up, down):  1.652E-02 0.000E+00

     total cpu time spent up to now is      111.4 secs

     End of self-consistent calculation

          k = 0.0000 0.0000 0.0000 ( 52087 PWs)   bands (ev):

   -12.9564 -12.4665 -12.4382 -11.5994 -11.3160 -11.2898 -11.2790 -11.1987
   -11.1820 -10.9330 -10.7812 -10.7687 -10.7602 -10.7302 -10.4020  -9.8438
    -9.8346  -9.7531  -9.4939  -9.3480  -9.2680  -9.1872  -9.0117  -8.7443
    -8.7082  -8.3059  -8.0541  -8.0414  -7.8974  -7.8928  -7.8873  -7.8541
    -7.7958  -7.3915  -7.3760  -7.3643  -7.0497  -6.4094  -6.3741  -6.3740
    -6.2585  -6.2500  -6.2132  -5.5106  -5.1301  -4.8977  -4.7976  -4.7765
    -4.7674  -4.6897  -4.6290  -4.6192  -4.5795  -4.5778  -4.5773  -4.5448
    -4.5042  -4.4595  -4.4505  -4.1291  -4.1058  -4.1007  -4.0739  -4.0592
    -3.9841  -3.9381  -3.7940  -3.7753  -3.3238  -3.2157  -3.1435  -3.1290
    -2.8983  -2.8654  -2.6919  -2.6144  -2.5979  -2.4610  -2.4270  -2.4165
    -2.4159  -2.2969  -2.2917  -2.2778  -2.2232  -2.0338  -1.9934  -1.9449
    -1.8914  -1.8593  -1.1731  -1.0737  -1.0625  -1.0026  -0.4447  -0.2988
    -0.0887   0.1974   0.2061   0.2440   0.2553   0.2762   0.3260   0.3964
     0.6557   0.7369

          k = 0.0000 0.5000 0.0000 ( 52005 PWs)   bands (ev):

   -12.8298 -12.3387 -12.3107 -11.8955 -11.4985 -11.3919 -11.3667 -11.1812
   -11.0912 -11.0746 -11.0256 -10.7982 -10.5420 -10.5252 -10.2980 -10.1401
    -9.8030  -9.7204  -9.7108  -9.6320  -9.6153  -8.9945  -8.8745  -8.8530
    -8.4445  -8.2993  -8.2792  -8.2537  -7.7876  -7.6537  -7.4767  -7.4327
    -7.4191  -7.1425  -7.0990  -7.0838  -6.9923  -6.1949  -6.1856  -5.9356
    -5.9093  -5.9091  -5.8214  -5.5649  -5.3581  -5.1602  -5.0248  -5.0227
    -4.9678  -4.9259  -4.8956  -4.8770  -4.8283  -4.8202  -4.6399  -4.5127
    -4.4358  -4.4242  -4.4227  -4.3898  -4.2323  -4.2284  -4.2102  -4.1862
    -3.8430  -3.6871  -3.6839  -3.6795  -3.6778  -3.6435  -3.5017  -3.4998
    -3.4886  -3.3302  -3.1870  -3.0258  -3.0134  -3.0133  -2.5750  -2.5246
    -2.4607  -2.3591  -2.3250  -2.3116  -2.2980  -1.9729  -1.9530  -1.9051
    -1.8293  -1.7841  -1.2583  -1.1597  -0.9690  -0.9029  -0.2110   0.3196
     0.3628   0.3801   0.4748   0.6138   0.6482   0.6709   0.8412   0.8554
     0.9470   1.0386

          k = 0.0000-1.0000 0.0000 ( 51922 PWs)   bands (ev):

   -12.4610 -12.4608 -11.9660 -11.9656 -11.9389 -11.9383 -11.2382 -11.2381
   -10.8071 -10.8058 -10.7909 -10.7894 -10.7824 -10.7821 -10.4025 -10.4023
   -10.0092 -10.0089  -9.3653  -9.3651  -9.3539  -9.3535  -9.2978  -9.2976
    -7.9011  -7.8995  -7.8794  -7.8779  -7.7686  -7.7685  -7.7483  -7.7482
    -7.0116  -7.0116  -6.2603  -6.2531  -6.2459  -6.2393  -6.0288  -6.0284
    -5.7839  -5.7837  -5.2252  -5.2234  -5.2162  -5.2147  -5.1607  -5.1598
    -5.1595  -5.1576  -5.1567  -5.1541  -4.8632  -4.8631  -4.7203  -4.7193
    -4.7156  -4.7153  -4.7008  -4.7001  -4.6015  -4.6009  -4.2775  -4.2772
    -4.0826  -4.0794  -4.0737  -4.0706  -4.0514  -4.0512  -3.5737  -3.5735
    -3.4268  -3.4235  -3.4177  -3.4143  -3.3710  -3.3710  -2.5025  -2.5022
    -2.1410  -2.1289  -2.0865  -2.0861  -2.0773  -2.0731  -2.0445  -2.0333
    -1.9977  -1.9976  -1.1562  -1.1403  -1.0756  -1.0592   0.0894   0.0895
     0.5038   0.5051   0.7849   0.7852   0.9002   0.9004   0.9812   0.9813
     1.1088   1.1098

          k =-0.5000 0.0000 0.0000 ( 51914 PWs)   bands (ev):

   -12.8284 -12.8280 -11.8674 -11.8664 -11.4908 -11.4905 -11.1596 -11.1591
   -11.1443 -11.1442 -10.8313 -10.8301 -10.2012 -10.2007 -10.1643 -10.1641
   -10.1040 -10.1027  -9.7514  -9.7512  -8.9331  -8.9324  -8.6536  -8.6529
    -8.4042  -8.4037  -8.3676  -8.3652  -7.9069  -7.9065  -7.8291  -7.8289
    -7.5762  -7.5753  -7.3671  -7.3671  -6.9087  -6.9067  -6.3927  -6.3923
    -6.3033  -6.3028  -5.3952  -5.3941  -5.1940  -5.1929  -5.0797  -5.0795
    -4.9780  -4.9764  -4.6296  -4.6294  -4.4815  -4.4810  -4.3959  -4.3951
    -4.3465  -4.3460  -4.0390  -4.0385  -4.0307  -4.0306  -4.0003  -3.9997
    -3.6266  -3.6255  -3.5357  -3.5346  -3.4925  -3.4922  -3.4352  -3.4352
    -3.2712  -3.2709  -2.9844  -2.9835  -2.4950  -2.4912  -2.4395  -2.4390
    -2.3702  -2.3695  -2.2312  -2.2309  -2.1236  -2.1180  -1.9322  -1.9307
    -1.7823  -1.7810  -1.5503  -1.5494  -0.3731  -0.3662  -0.1411  -0.1397
    -0.0366  -0.0262   0.0246   0.0251   0.4921   0.4922   0.5114   0.5131
     0.6152   0.6156

          k =-0.5000 0.5000 0.0000 ( 51960 PWs)   bands (ev):

   -12.7016 -12.7012 -11.7649 -11.7645 -11.7377 -11.7366 -11.3885 -11.3881
   -10.8997 -10.8994 -10.7694 -10.7686 -10.7094 -10.7083 -10.0851 -10.0845
    -9.9949  -9.9941  -9.6292  -9.6290  -9.1942  -9.1941  -8.9366  -8.9363
    -8.3207  -8.3198  -8.2514  -8.2510  -7.5868  -7.5860  -7.4466  -7.4466
    -7.4349  -7.4333  -7.0989  -7.0987  -6.8445  -6.8425  -5.9627  -5.9622
    -5.8258  -5.8255  -5.4421  -5.4412  -5.4140  -5.4133  -5.2527  -5.2518
    -5.0476  -5.0473  -4.8935  -4.8933  -4.5936  -4.5932  -4.4504  -4.4492
    -4.4037  -4.4032  -4.3185  -4.3184  -4.0874  -4.0866  -4.0474  -4.0465
    -3.9406  -3.9399  -3.6452  -3.6446  -3.6219  -3.6214  -3.4908  -3.4901
    -3.3770  -3.3762  -3.2612  -3.2607  -3.1838  -3.1834  -2.9512  -2.9509
    -2.4015  -2.3973  -2.3564  -2.3555  -2.0731  -2.0678  -1.9367  -1.9360
    -1.7128  -1.7114  -1.4914  -1.4905  -0.1923  -0.1866  -0.1577  -0.1501
     0.2964   0.2981   0.7721   0.7722   0.8700   0.8703   0.9599   0.9609
     1.0434   1.0447

          k =-0.5000-1.0000 0.0000 ( 52096 PWs)   bands (ev):

   -12.3320 -12.3319 -12.3317 -12.3314 -11.3583 -11.3580 -11.3570 -11.3565
   -11.1230 -11.1230 -11.1226 -11.1222 -10.3732 -10.3731 -10.3716 -10.3711
    -9.7458  -9.7457  -9.7454  -9.7450  -9.2878  -9.2876  -9.2874  -9.2873
    -7.8383  -7.8383  -7.8381  -7.8376  -7.7755  -7.7752  -7.7734  -7.7731
    -6.8253  -6.8242  -6.8182  -6.8175  -6.0113  -6.0107  -6.0099  -6.0097
    -5.6649  -5.6647  -5.6638  -5.6637  -5.1264  -5.1260  -5.1252  -5.1251
    -5.0602  -5.0601  -5.0570  -5.0570  -4.6840  -4.6839  -4.6836  -4.6833
    -4.6424  -4.6416  -4.6411  -4.6407  -4.3926  -4.3922  -4.3900  -4.3898
    -4.2051  -4.2051  -4.2028  -4.2025  -3.8525  -3.8525  -3.8494  -3.8493
    -3.3156  -3.3156  -3.3143  -3.3139  -3.2151  -3.2149  -3.2140  -3.2140
    -2.1721  -2.1673  -2.1584  -2.1558  -2.0192  -2.0184  -2.0160  -2.0139
    -1.7025  -1.7022  -1.7022  -1.7016  -0.1834  -0.1821  -0.1690  -0.1653
     0.8861   0.8867   0.8876   0.8876   1.0979   1.0981   1.0990   1.0992
     1.1660   1.1678

     the Fermi energy is    -1.8979 ev

!    total energy              =    -355.47776734 Ry
     estimated scf accuracy    <       0.00000004 Ry
     smearing contrib. (-TS)   =      -0.00422892 Ry
     internal energy E=F+TS    =    -355.47353841 Ry

     The total energy is F=E-TS. E is the sum of the following terms:
     one-electron contribution =   -2918.78313606 Ry
     hartree contribution      =    1488.50067538 Ry
     xc contribution           =    -132.55579664 Ry
     ewald contribution        =    1207.36471891 Ry

     convergence has been achieved in  24 iterations

     negative rho (up, down):  1.652E-02 0.000E+00

     Forces acting on atoms (cartesian axes, Ry/au):

     atom    1 type  2   force =     0.00027155   -0.02515106    0.00618746
     atom    2 type  2   force =     0.00027155    0.02515107    0.00618742
     atom    3 type  2   force =    -0.00025643   -0.02514754    0.00617917
     atom    4 type  2   force =    -0.00025645    0.02514757    0.00617916
     atom    5 type  2   force =    -0.00022206   -0.02515067    0.00619196
     atom    6 type  2   force =    -0.00022204    0.02515065    0.00619195
     atom    7 type  2   force =     0.00022368   -0.02514719    0.00619290
     atom    8 type  2   force =     0.00022372    0.02514719    0.00619285
     atom    9 type  2   force =    -0.00021535   -0.02514694    0.00617881
     atom   10 type  2   force =    -0.00021532    0.02514697    0.00617886
     atom   11 type  2   force =     0.00022794   -0.02514705    0.00617604
     atom   12 type  2   force =     0.00022797    0.02514708    0.00617600
     atom   13 type  2   force =     0.00027368   -0.02514731    0.00619050
     atom   14 type  2   force =     0.00027368    0.02514733    0.00619047
     atom   15 type  2   force =    -0.00024238   -0.02515164    0.00619417
     atom   16 type  2   force =    -0.00024241    0.02515163    0.00619419
     atom   17 type  1   force =    -0.00068575   -0.00000000    0.00117116
     atom   18 type  1   force =     0.00067235    0.00000004    0.00119703
     atom   19 type  1   force =    -0.00054867   -0.00000002    0.00116958
     atom   20 type  1   force =     0.00053074   -0.00000006    0.00119433
     atom   21 type  1   force =    -0.00068242    0.00000000    0.00120516
     atom   22 type  1   force =     0.00064231   -0.00000002    0.00117907
     atom   23 type  1   force =    -0.00052519   -0.00000000    0.00119631
     atom   24 type  1   force =     0.00051136    0.00000021    0.00118723
     atom   25 type  1   force =    -0.00001619   -0.00000001   -0.00962358
     atom   26 type  1   force =     0.00000518    0.00000003   -0.00951408
     atom   27 type  1   force =    -0.00001539   -0.00000009   -0.00966267
     atom   28 type  1   force =     0.00000348    0.00000004   -0.00951802
     atom   29 type  1   force =     0.00013646   -0.00000010   -0.00964410
     atom   30 type  1   force =     0.00007320   -0.00000022   -0.00951049
     atom   31 type  1   force =     0.00002835    0.00000007   -0.00968804
     atom   32 type  1   force =     0.00006456    0.00000007   -0.00948900
     atom   33 type  1   force =    -0.00010583   -0.00019941   -0.00098668
     atom   34 type  1   force =     0.00003809    0.00016324   -0.00104887
     atom   35 type  1   force =     0.00000806   -0.00017274   -0.00148055
     atom   36 type  1   force =     0.00000806    0.00017281   -0.00148073
     atom   37 type  1   force =    -0.00009124   -0.00006139   -0.00157459
     atom   38 type  1   force =    -0.00009125    0.00006136   -0.00157426
     atom   39 type  1   force =     0.00003781   -0.00016305   -0.00104880
     atom   40 type  1   force =    -0.00010620    0.00019921   -0.00098644
     atom   41 type  1   force =     0.00311003   -0.00005885    0.00244279
     atom   42 type  1   force =     0.00281753    0.00000014    0.00236430
     atom   43 type  1   force =    -0.00272149   -0.00003660    0.00239792
     atom   44 type  1   force =    -0.00272179    0.00003639    0.00239784
     atom   45 type  1   force =    -0.00278722    0.00001430    0.00234510
     atom   46 type  1   force =    -0.00278756   -0.00001459    0.00234512
     atom   47 type  1   force =     0.00281717   -0.00000009    0.00236436
     atom   48 type  1   force =     0.00310999    0.00005898    0.00244280
     atom   49 type  1   force =     0.00423868   -0.00000009   -0.00495864
     atom   50 type  1   force =    -0.00453384    0.00000031   -0.00491728
     atom   51 type  1   force =     0.00681057   -0.00000003   -0.00505539
     atom   52 type  1   force =    -0.00612734   -0.00000007   -0.00521513
     atom   53 type  1   force =     0.00513784    0.00000017   -0.00515774
     atom   54 type  1   force =    -0.00480946   -0.00000003   -0.00504837
     atom   55 type  1   force =     0.00580492   -0.00000017   -0.00511073
     atom   56 type  1   force =    -0.00737126    0.00000015   -0.00528781

     Total force =     0.024344     Total SCF correction =     0.000211

     BFGS Geometry Optimization
     Energy error            =      0.0E+00 Ry
     Gradient error          =      7.4E-03 Ry/Bohr

     number of scf cycles    =   1
     number of bfgs steps    =   0

     energy             new  =    -355.4777673375 Ry

     new trust radius        =       0.0090717346 bohr
     new conv_thr            =       0.0000001000 Ry


ATOMIC_POSITIONS (alat)
H             0.0000000000       -0.0675500000       -0.0675500000    0   0   0
H             0.0000000000        0.0675500000       -0.0675500000    0   0   0
H             0.2500000000       -0.0675500000       -0.0675500000    0   0   0
H             0.2500000000        0.0675500000       -0.0675500000    0   0   0
H             0.2500000000        0.1824500000       -0.0675500000    0   0   0
H             0.2500000000        0.3175500000       -0.0675500000    0   0   0
H             0.5000000000        0.1824500000       -0.0675500000    0   0   0
H             0.5000000000        0.3175500000       -0.0675500000    0   0   0
H             0.7500000000        0.1824500000       -0.0675500000    0   0   0
H             0.7500000000        0.3175500000       -0.0675500000    0   0   0
H             0.0000000000        0.1824500000       -0.0675500000    0   0   0
H             0.0000000000        0.3175500000       -0.0675500000    0   0   0
H             0.5000000000       -0.0675500000       -0.0675500000    0   0   0
H             0.5000000000        0.0675500000       -0.0675500000    0   0   0
H             0.7500000000       -0.0675500000       -0.0675500000    0   0   0
H             0.7500000000        0.0675500000       -0.0675500000    0   0   0
Si            0.0000000000        0.0000000000        0.0000000000    0   0   0
Si            0.2500000000        0.0000000000        0.0000000000    0   0   0
Si            0.0000000000        0.2500000000        0.0000000000    0   0   0
Si            0.2500000000        0.2500000000        0.0000000000    0   0   0
Si            0.5000000000        0.0000000000        0.0000000000    0   0   0
Si            0.7500000000        0.0000000000        0.0000000000    0   0   0
Si            0.5000000000        0.2500000000        0.0000000000    0   0   0
Si            0.7500000000        0.2500000000        0.0000000000    0   0   0
Si            0.1250000000        0.0000000000        0.0883883480    0   0   0
Si            0.3750000000        0.0000000000        0.0883883480    0   0   0
Si            0.1250000000        0.2500000000        0.0883883480    0   0   0
Si            0.3750000000        0.2500000000        0.0883883480    0   0   0
Si            0.6250000000        0.0000000000        0.0883883480    0   0   0
Si            0.8750000000        0.0000000000        0.0883883480    0   0   0
Si            0.6250000000        0.2500000000        0.0883883480    0   0   0
Si            0.8750000000        0.2500000000        0.0883883480    0   0   0
Si            0.6249963799        0.3749931788        0.1767429446
Si            0.1250013030        0.1250055841        0.1767408173
Si            0.3750002758        0.1249940911        0.1767260508
Si            0.3750002757        0.3750059114        0.1767260445
Si            0.8749968788        0.1249979002        0.1767228340
Si            0.8749968785        0.3750020988        0.1767228451
Si            0.1250012934        0.3749944227        0.1767408197
Si            0.6249963673        0.1250068143        0.1767429529
Si            0.7501063851        0.3749979871        0.2652486047
Si            0.2500963792        0.1250000046        0.2652459196
Si            0.4999069059        0.1249987482        0.2652470698
Si            0.4999068955        0.3750012449        0.2652470671
Si           -0.0000953426        0.1250004893        0.2652452629
Si           -0.0000953540        0.3749995008        0.2652452636
Si            0.2500963669        0.3749999971        0.2652459216
Si            0.7501063837        0.1250020176        0.2652486048
Si            0.0011449927       -0.0000000029        0.3533837715
Si            0.2488449109        0.0000000106        0.3533851865
Si            0.0022329696        0.2499999989        0.3533804622
Si            0.2477904018        0.2499999976        0.3533749977
Si            0.5021757504        0.0000000058        0.3533769608
Si            0.7488354826       -0.0000000009        0.3533807021
Si            0.5011985692        0.2499999942        0.3533785689
Si            0.7467478510        0.2500000050        0.3533725118



     Writing config-only to output data dir ./si.save/
     NEW-OLD atomic charge density approx. for the potential

     negative rho (up, down):  1.653E-02 0.000E+00

     total cpu time spent up to now is      113.4 secs

     per-process dynamical memory:   636.1 Mb

     Self-consistent Calculation

     iteration #  1     ecut=    30.00 Ry     beta= 0.70
     Davidson diagonalization with overlap
     ethr =  1.00E-06,  avg # of iterations =  3.0

     Threshold (ethr) on eigenvalues was too large:
     Diagonalizing with lowered threshold

     Davidson diagonalization with overlap
     ethr =  6.65E-08,  avg # of iterations =  2.8

     negative rho (up, down):  1.653E-02 0.000E+00

     total cpu time spent up to now is      122.3 secs

     total energy              =    -355.47829002 Ry
     estimated scf accuracy    <       0.00012421 Ry

     iteration #  2     ecut=    30.00 Ry     beta= 0.70
     Davidson diagonalization with overlap
     ethr =  7.06E-08,  avg # of iterations =  4.0

     negative rho (up, down):  1.653E-02 0.000E+00

     total cpu time spent up to now is      127.5 secs

     total energy              =    -355.47811220 Ry
     estimated scf accuracy    <       0.00189685 Ry

     iteration #  3     ecut=    30.00 Ry     beta= 0.70
     Davidson diagonalization with overlap
     ethr =  7.06E-08,  avg # of iterations =  3.8

     negative rho (up, down):  1.653E-02 0.000E+00

     total cpu time spent up to now is      132.3 secs

     total energy              =    -355.47813144 Ry
     estimated scf accuracy    <       0.00538658 Ry

     iteration #  4     ecut=    30.00 Ry     beta= 0.70
     Davidson diagonalization with overlap
     ethr =  7.06E-08,  avg # of iterations =  3.0

     negative rho (up, down):  1.653E-02 0.000E+00

     total cpu time spent up to now is      136.8 secs

     total energy              =    -355.47833030 Ry
     estimated scf accuracy    <       0.00015671 Ry

     iteration #  5     ecut=    30.00 Ry     beta= 0.70
     Davidson diagonalization with overlap
     ethr =  7.06E-08,  avg # of iterations =  2.0

     negative rho (up, down):  1.653E-02 0.000E+00

     total cpu time spent up to now is      140.7 secs

     total energy              =    -355.47834592 Ry
     estimated scf accuracy    <       0.00000693 Ry

     iteration #  6     ecut=    30.00 Ry     beta= 0.70
     Davidson diagonalization with overlap
     ethr =  3.94E-09,  avg # of iterations =  4.3

     negative rho (up, down):  1.653E-02 0.000E+00

     total cpu time spent up to now is      145.8 secs

     total energy              =    -355.47834348 Ry
     estimated scf accuracy    <       0.00012597 Ry

     iteration #  7     ecut=    30.00 Ry     beta= 0.70
     Davidson diagonalization with overlap
     ethr =  3.94E-09,  avg # of iterations =  2.0

     negative rho (up, down):  1.653E-02 0.000E+00

     total cpu time spent up to now is      149.7 secs

     total energy              =    -355.47834786 Ry
     estimated scf accuracy    <       0.00000445 Ry

     iteration #  8     ecut=    30.00 Ry     beta= 0.70
     Davidson diagonalization with overlap
     ethr =  2.53E-09,  avg # of iterations =  2.0

     negative rho (up, down):  1.653E-02 0.000E+00

     total cpu time spent up to now is      153.5 secs

     total energy              =    -355.47834814 Ry
     estimated scf accuracy    <       0.00000199 Ry

     iteration #  9     ecut=    30.00 Ry     beta= 0.70
     Davidson diagonalization with overlap
     ethr =  1.13E-09,  avg # of iterations =  2.0

     negative rho (up, down):  1.653E-02 0.000E+00

     total cpu time spent up to now is      157.3 secs

     total energy              =    -355.47834835 Ry
     estimated scf accuracy    <       0.00000016 Ry

     iteration # 10     ecut=    30.00 Ry     beta= 0.70
     Davidson diagonalization with overlap
     ethr =  9.05E-11,  avg # of iterations =  3.8

     negative rho (up, down):  1.653E-02 0.000E+00

     total cpu time spent up to now is      161.9 secs

     End of self-consistent calculation

          k = 0.0000 0.0000 0.0000 ( 52087 PWs)   bands (ev):

   -12.9571 -12.4678 -12.4386 -11.6022 -11.3165 -11.2902 -11.2781 -11.2025
   -11.1849 -10.9390 -10.7825 -10.7682 -10.7585 -10.7305 -10.4025  -9.8464
    -9.8361  -9.7553  -9.4940  -9.3467  -9.2689  -9.1905  -9.0172  -8.7514
    -8.7121  -8.3124  -8.0561  -8.0418  -7.9042  -7.8934  -7.8916  -7.8598
    -7.7941  -7.3889  -7.3729  -7.3627  -7.0464  -6.4104  -6.3742  -6.3740
    -6.2576  -6.2457  -6.2134  -5.5086  -5.1301  -4.8979  -4.7977  -4.7766
    -4.7655  -4.6915  -4.6262  -4.6155  -4.5788  -4.5772  -4.5764  -4.5451
    -4.5024  -4.4595  -4.4498  -4.1312  -4.1072  -4.1033  -4.0726  -4.0596
    -3.9860  -3.9364  -3.7966  -3.7764  -3.3282  -3.2157  -3.1480  -3.1333
    -2.9001  -2.8607  -2.6921  -2.6141  -2.6107  -2.4614  -2.4226  -2.4154
    -2.4128  -2.3005  -2.2966  -2.2846  -2.2302  -2.0318  -1.9930  -1.9368
    -1.8869  -1.8536  -1.1801  -1.0745  -1.0578  -0.9975  -0.4457  -0.2988
    -0.0895   0.1955   0.2039   0.2451   0.2517   0.2734   0.3262   0.3937
     0.6541   0.7318

          k = 0.0000 0.5000 0.0000 ( 52005 PWs)   bands (ev):

   -12.8305 -12.3400 -12.3111 -11.8956 -11.5011 -11.3925 -11.3668 -11.1816
   -11.0947 -11.0774 -11.0261 -10.8041 -10.5428 -10.5261 -10.2986 -10.1402
    -9.8063  -9.7231  -9.7124  -9.6342  -9.6173  -8.9989  -8.8798  -8.8562
    -8.4436  -8.3015  -8.2798  -8.2553  -7.7859  -7.6568  -7.4746  -7.4301
    -7.4177  -7.1464  -7.1042  -7.0861  -6.9889  -6.1942  -6.1812  -5.9356
    -5.9093  -5.9092  -5.8230  -5.5636  -5.3597  -5.1614  -5.0243  -5.0218
    -4.9675  -4.9256  -4.8960  -4.8767  -4.8294  -4.8197  -4.6433  -4.5141
    -4.4357  -4.4243  -4.4230  -4.3919  -4.2317  -4.2272  -4.2133  -4.1886
    -3.8413  -3.6885  -3.6850  -3.6800  -3.6797  -3.6437  -3.5031  -3.5008
    -3.4894  -3.3408  -3.1844  -3.0337  -3.0201  -3.0195  -2.5746  -2.5232
    -2.4595  -2.3589  -2.3199  -2.3080  -2.2972  -1.9711  -1.9530  -1.8974
    -1.8242  -1.7803  -1.2641  -1.1554  -0.9690  -0.8983  -0.2091   0.3190
     0.3649   0.3802   0.4741   0.6127   0.6464   0.6708   0.8409   0.8534
     0.9502   1.0373

          k = 0.0000-1.0000 0.0000 ( 51922 PWs)   bands (ev):

   -12.4615 -12.4613 -11.9671 -11.9665 -11.9393 -11.9384 -11.2401 -11.2400
   -10.8098 -10.8084 -10.7932 -10.7916 -10.7828 -10.7824 -10.4078 -10.4077
   -10.0100 -10.0096  -9.3687  -9.3683  -9.3559  -9.3554  -9.3006  -9.3002
    -7.8992  -7.8978  -7.8794  -7.8781  -7.7682  -7.7681  -7.7477  -7.7477
    -7.0094  -7.0094  -6.2624  -6.2547  -6.2438  -6.2367  -6.0314  -6.0309
    -5.7852  -5.7850  -5.2253  -5.2232  -5.2166  -5.2148  -5.1641  -5.1625
    -5.1622  -5.1606  -5.1602  -5.1574  -4.8653  -4.8653  -4.7212  -4.7200
    -4.7179  -4.7177  -4.6998  -4.6990  -4.6019  -4.6012  -4.2776  -4.2773
    -4.0838  -4.0803  -4.0747  -4.0713  -4.0562  -4.0561  -3.5717  -3.5715
    -3.4297  -3.4259  -3.4206  -3.4167  -3.3736  -3.3736  -2.5015  -2.5011
    -2.1435  -2.1296  -2.0862  -2.0817  -2.0719  -2.0712  -2.0382  -2.0262
    -1.9932  -1.9931  -1.1596  -1.1424  -1.0718  -1.0541   0.0917   0.0918
     0.5034   0.5048   0.7863   0.7867   0.9022   0.9025   0.9820   0.9821
     1.1102   1.1114

          k =-0.5000 0.0000 0.0000 ( 51914 PWs)   bands (ev):

   -12.8292 -12.8288 -11.8685 -11.8675 -11.4938 -11.4933 -11.1601 -11.1594
   -11.1434 -11.1433 -10.8360 -10.8349 -10.2021 -10.2015 -10.1648 -10.1645
   -10.1037 -10.1026  -9.7536  -9.7534  -8.9388  -8.9379  -8.6551  -8.6543
    -8.4075  -8.4070  -8.3730  -8.3707  -7.9077  -7.9073  -7.8349  -7.8347
    -7.5746  -7.5736  -7.3646  -7.3646  -6.9054  -6.9033  -6.3935  -6.3931
    -6.3032  -6.3026  -5.3937  -5.3925  -5.1918  -5.1906  -5.0797  -5.0794
    -4.9771  -4.9754  -4.6296  -4.6294  -4.4799  -4.4794  -4.3980  -4.3970
    -4.3473  -4.3468  -4.0411  -4.0405  -4.0290  -4.0289  -4.0023  -4.0016
    -3.6222  -3.6210  -3.5355  -3.5344  -3.4926  -3.4923  -3.4364  -3.4363
    -3.2757  -3.2753  -2.9883  -2.9875  -2.4932  -2.4891  -2.4489  -2.4485
    -2.3681  -2.3674  -2.2383  -2.2381  -2.1198  -2.1138  -1.9326  -1.9310
    -1.7781  -1.7767  -1.5463  -1.5453  -0.3744  -0.3672  -0.1427  -0.1413
    -0.0381  -0.0273   0.0227   0.0232   0.4916   0.4917   0.5077   0.5094
     0.6150   0.6154

          k =-0.5000 0.5000 0.0000 ( 51960 PWs)   bands (ev):

   -12.7023 -12.7019 -11.7651 -11.7647 -11.7387 -11.7377 -11.3913 -11.3908
   -10.9003 -10.8999 -10.7699 -10.7692 -10.7139 -10.7128 -10.0861 -10.0855
    -9.9965  -9.9958  -9.6315  -9.6313  -9.1969  -9.1968  -8.9411  -8.9406
    -8.3220  -8.3212  -8.2529  -8.2523  -7.5852  -7.5843  -7.4447  -7.4445
    -7.4374  -7.4356  -7.1029  -7.1026  -6.8413  -6.8391  -5.9627  -5.9621
    -5.8271  -5.8267  -5.4414  -5.4405  -5.4149  -5.4142  -5.2513  -5.2503
    -5.0482  -5.0478  -4.8933  -4.8931  -4.5955  -4.5950  -4.4507  -4.4495
    -4.4048  -4.4043  -4.3202  -4.3201  -4.0890  -4.0880  -4.0458  -4.0448
    -3.9424  -3.9417  -3.6446  -3.6440  -3.6242  -3.6238  -3.4911  -3.4904
    -3.3770  -3.3762  -3.2605  -3.2598  -3.1915  -3.1913  -2.9576  -2.9574
    -2.4009  -2.3965  -2.3522  -2.3512  -2.0697  -2.0641  -1.9363  -1.9356
    -1.7091  -1.7075  -1.4877  -1.4866  -0.1921  -0.1863  -0.1587  -0.1509
     0.2954   0.2971   0.7704   0.7706   0.8705   0.8708   0.9629   0.9639
     1.0445   1.0459

          k =-0.5000-1.0000 0.0000 ( 52096 PWs)   bands (ev):

   -12.3325 -12.3325 -12.3322 -12.3319 -11.3591 -11.3588 -11.3579 -11.3574
   -11.1251 -11.1250 -11.1247 -11.1242 -10.3769 -10.3768 -10.3753 -10.3748
    -9.7473  -9.7472  -9.7469  -9.7464  -9.2905  -9.2903  -9.2901  -9.2900
    -7.8380  -7.8380  -7.8379  -7.8373  -7.7748  -7.7745  -7.7725  -7.7723
    -6.8233  -6.8221  -6.8158  -6.8151  -6.0137  -6.0131  -6.0122  -6.0120
    -5.6666  -5.6663  -5.6654  -5.6652  -5.1289  -5.1285  -5.1277  -5.1276
    -5.0622  -5.0622  -5.0589  -5.0589  -4.6855  -4.6854  -4.6852  -4.6848
    -4.6417  -4.6407  -4.6403  -4.6398  -4.3931  -4.3926  -4.3904  -4.3901
    -4.2065  -4.2065  -4.2041  -4.2038  -3.8562  -3.8562  -3.8530  -3.8529
    -3.3148  -3.3147  -3.3134  -3.3131  -3.2172  -3.2170  -3.2161  -3.2161
    -2.1704  -2.1648  -2.1565  -2.1528  -2.0155  -2.0144  -2.0122  -2.0096
    -1.7001  -1.6998  -1.6998  -1.6991  -0.1836  -0.1824  -0.1690  -0.1650
     0.8880   0.8885   0.8895   0.8895   1.1003   1.1006   1.1014   1.1018
     1.1673   1.1692

     the Fermi energy is    -1.8947 ev

!    total energy              =    -355.47834836 Ry
     estimated scf accuracy    <       0.00000004 Ry
     smearing contrib. (-TS)   =      -0.00411908 Ry
     internal energy E=F+TS    =    -355.47422928 Ry

     The total energy is F=E-TS. E is the sum of the following terms:
     one-electron contribution =   -2919.43738478 Ry
     hartree contribution      =    1488.82503449 Ry
     xc contribution           =    -132.56229610 Ry
     ewald contribution        =    1207.70041712 Ry

     convergence has been achieved in  10 iterations

     negative rho (up, down):  1.653E-02 0.000E+00

     Forces acting on atoms (cartesian axes, Ry/au):

     atom    1 type  2   force =     0.00031268   -0.02514460    0.00619940
     atom    2 type  2   force =     0.00031266    0.02514460    0.00619942
     atom    3 type  2   force =    -0.00029990   -0.02514139    0.00618814
     atom    4 type  2   force =    -0.00029992    0.02514141    0.00618815
     atom    5 type  2   force =    -0.00026250   -0.02514388    0.00620088
     atom    6 type  2   force =    -0.00026252    0.02514392    0.00620088
     atom    7 type  2   force =     0.00026488   -0.02514046    0.00620133
     atom    8 type  2   force =     0.00026484    0.02514048    0.00620134
     atom    9 type  2   force =    -0.00025479   -0.02514021    0.00618843
     atom   10 type  2   force =    -0.00025479    0.02514024    0.00618842
     atom   11 type  2   force =     0.00026775   -0.02513982    0.00618679
     atom   12 type  2   force =     0.00026777    0.02513983    0.00618681
     atom   13 type  2   force =     0.00031595   -0.02514111    0.00619993
     atom   14 type  2   force =     0.00031590    0.02514113    0.00619993
     atom   15 type  2   force =    -0.00028267   -0.02514559    0.00620434
     atom   16 type  2   force =    -0.00028267    0.02514560    0.00620434
     atom   17 type  1   force =    -0.00079404    0.00000000    0.00113847
     atom   18 type  1   force =     0.00077274   -0.00000004    0.00116371
     atom   19 type  1   force =    -0.00064948   -0.00000003    0.00113613
     atom   20 type  1   force =     0.00062063   -0.00000006    0.00116089
     atom   21 type  1   force =    -0.00078319   -0.00000003    0.00117184
     atom   22 type  1   force =     0.00074909   -0.00000006    0.00114377
     atom   23 type  1   force =    -0.00062215   -0.00000001    0.00116047
     atom   24 type  1   force =     0.00061414    0.00000003    0.00115193
     atom   25 type  1   force =    -0.00002743   -0.00000009   -0.00970434
     atom   26 type  1   force =     0.00000701    0.00000001   -0.00971627
     atom   27 type  1   force =    -0.00001738   -0.00000008   -0.00979281
     atom   28 type  1   force =     0.00001476   -0.00000004   -0.00968009
     atom   29 type  1   force =     0.00015431    0.00000007   -0.00971191
     atom   30 type  1   force =     0.00007161    0.00000001   -0.00971502
     atom   31 type  1   force =     0.00003062   -0.00000003   -0.00981423
     atom   32 type  1   force =     0.00006545    0.00000005   -0.00967711
     atom   33 type  1   force =    -0.00004722   -0.00016621   -0.00003222
     atom   34 type  1   force =     0.00003262    0.00014866   -0.00010105
     atom   35 type  1   force =     0.00001496   -0.00013442   -0.00124880
     atom   36 type  1   force =     0.00001465    0.00013420   -0.00124865
     atom   37 type  1   force =    -0.00004480   -0.00004291   -0.00135153
     atom   38 type  1   force =    -0.00004478    0.00004296   -0.00135188
     atom   39 type  1   force =     0.00003274   -0.00014866   -0.00010084
     atom   40 type  1   force =    -0.00004704    0.00016615   -0.00003240
     atom   41 type  1   force =     0.00291854   -0.00005095    0.00123217
     atom   42 type  1   force =     0.00268293   -0.00001300    0.00117420
     atom   43 type  1   force =    -0.00260067   -0.00002727    0.00120201
     atom   44 type  1   force =    -0.00260041    0.00002726    0.00120197
     atom   45 type  1   force =    -0.00267092   -0.00000249    0.00115070
     atom   46 type  1   force =    -0.00267077    0.00000241    0.00115065
     atom   47 type  1   force =     0.00268289    0.00001305    0.00117415
     atom   48 type  1   force =     0.00291860    0.00005092    0.00123210
     atom   49 type  1   force =     0.00500297    0.00000009   -0.00418772
     atom   50 type  1   force =    -0.00531966   -0.00000000   -0.00413354
     atom   51 type  1   force =     0.00779089   -0.00000012   -0.00432500
     atom   52 type  1   force =    -0.00705778    0.00000010   -0.00445191
     atom   53 type  1   force =     0.00593683   -0.00000006   -0.00437547
     atom   54 type  1   force =    -0.00560757    0.00000008   -0.00425840
     atom   55 type  1   force =     0.00672605    0.00000012   -0.00433124
     atom   56 type  1   force =    -0.00837244    0.00000023   -0.00454128

     Total force =     0.023941     Total SCF correction =     0.000264
     Energy error            =      5.8E-04 Ry
     Gradient error          =      8.4E-03 Ry/Bohr

     number of scf cycles    =   2
     number of bfgs steps    =   1

     energy             old  =    -355.4777673375 Ry
     energy             new  =    -355.4783483562 Ry

     CASE: energy            _new < energy            _old


     WARNING: bfgs curvature condition failed, Theta= 0.832
     new trust radius        =       0.0099789081 bohr
     new conv_thr            =       0.0000000116 Ry


ATOMIC_POSITIONS (alat)
H             0.0000000000       -0.0675500000       -0.0675500000    0   0   0
H             0.0000000000        0.0675500000       -0.0675500000    0   0   0
H             0.2500000000       -0.0675500000       -0.0675500000    0   0   0
H             0.2500000000        0.0675500000       -0.0675500000    0   0   0
H             0.2500000000        0.1824500000       -0.0675500000    0   0   0
H             0.2500000000        0.3175500000       -0.0675500000    0   0   0
H             0.5000000000        0.1824500000       -0.0675500000    0   0   0
H             0.5000000000        0.3175500000       -0.0675500000    0   0   0
H             0.7500000000        0.1824500000       -0.0675500000    0   0   0
H             0.7500000000        0.3175500000       -0.0675500000    0   0   0
H             0.0000000000        0.1824500000       -0.0675500000    0   0   0
H             0.0000000000        0.3175500000       -0.0675500000    0   0   0
H             0.5000000000       -0.0675500000       -0.0675500000    0   0   0
H             0.5000000000        0.0675500000       -0.0675500000    0   0   0
H             0.7500000000       -0.0675500000       -0.0675500000    0   0   0
H             0.7500000000        0.0675500000       -0.0675500000    0   0   0
Si            0.0000000000        0.0000000000        0.0000000000    0   0   0
Si            0.2500000000        0.0000000000        0.0000000000    0   0   0
Si            0.0000000000        0.2500000000        0.0000000000    0   0   0
Si            0.2500000000        0.2500000000        0.0000000000    0   0   0
Si            0.5000000000        0.0000000000        0.0000000000    0   0   0
Si            0.7500000000        0.0000000000        0.0000000000    0   0   0
Si            0.5000000000        0.2500000000        0.0000000000    0   0   0
Si            0.7500000000        0.2500000000        0.0000000000    0   0   0
Si            0.1250000000        0.0000000000        0.0883883480    0   0   0
Si            0.3750000000        0.0000000000        0.0883883480    0   0   0
Si            0.1250000000        0.2500000000        0.0883883480    0   0   0
Si            0.3750000000        0.2500000000        0.0883883480    0   0   0
Si            0.6250000000        0.0000000000        0.0883883480    0   0   0
Si            0.8750000000        0.0000000000        0.0883883480    0   0   0
Si            0.6250000000        0.2500000000        0.0883883480    0   0   0
Si            0.8750000000        0.2500000000        0.0883883480    0   0   0
Si            0.6249932118        0.3749862167        0.1767186524
Si            0.1250026441        0.1250114455        0.1767141354
Si            0.3750006632        0.1249881830        0.1766741694
Si            0.3750006591        0.3750118185        0.1766741607
Si            0.8749940949        0.1249958631        0.1766673566
Si            0.8749940946        0.3750041358        0.1766673709
Si            0.1250026294        0.3749885661        0.1767141422
Si            0.6249931927        0.1250137708        0.1767186643
Si            0.7502191625        0.3749959081        0.2653235589
Si            0.2501990494        0.1249998408        0.2653182290
Si            0.4998076173        0.1249975121        0.2653205505
Si            0.4998076028        0.3750024760        0.2653205453
Si           -0.0001971250        0.1250008035        0.2653168058
Si           -0.0001971426        0.3749991786        0.2653168062
Si            0.2501990278        0.3750001627        0.2653182319
Si            0.7502191609        0.1250040995        0.2653235582
Si            0.0013118758       -0.0000000038        0.3532099438
Si            0.2486668144        0.0000000181        0.3532130561
Si            0.0024979279        0.2499999966        0.3532025286
Si            0.2475514009        0.2499999971        0.3531915670
Si            0.5023763969        0.0000000091        0.3531959015
Si            0.7486470152       -0.0000000005        0.3532037944
Si            0.5014255035        0.2499999916        0.3531992157
Si            0.7464618489        0.2500000116        0.3531861738



     Writing config-only to output data dir ./si.save/
     NEW-OLD atomic charge density approx. for the potential

     negative rho (up, down):  1.654E-02 0.000E+00

     total cpu time spent up to now is      164.0 secs

     per-process dynamical memory:   636.1 Mb

     Self-consistent Calculation

     iteration #  1     ecut=    30.00 Ry     beta= 0.70
     Davidson diagonalization with overlap
     ethr =  1.00E-06,  avg # of iterations =  3.3

     Threshold (ethr) on eigenvalues was too large:
     Diagonalizing with lowered threshold

     Davidson diagonalization with overlap
     ethr =  7.49E-08,  avg # of iterations =  2.2

     negative rho (up, down):  1.653E-02 0.000E+00

     total cpu time spent up to now is      172.8 secs

     total energy              =    -355.47890057 Ry
     estimated scf accuracy    <       0.00013868 Ry

     iteration #  2     ecut=    30.00 Ry     beta= 0.70
     Davidson diagonalization with overlap
     ethr =  7.88E-08,  avg # of iterations =  4.3

     negative rho (up, down):  1.653E-02 0.000E+00

     total cpu time spent up to now is      178.1 secs

     total energy              =    -355.47878437 Ry
     estimated scf accuracy    <       0.00106335 Ry

     iteration #  3     ecut=    30.00 Ry     beta= 0.70
     Davidson diagonalization with overlap
     ethr =  7.88E-08,  avg # of iterations =  4.0

     negative rho (up, down):  1.653E-02 0.000E+00

     total cpu time spent up to now is      183.0 secs

     total energy              =    -355.47873902 Ry
     estimated scf accuracy    <       0.00573207 Ry

     iteration #  4     ecut=    30.00 Ry     beta= 0.70
     Davidson diagonalization with overlap
     ethr =  7.88E-08,  avg # of iterations =  2.5

     negative rho (up, down):  1.653E-02 0.000E+00

     total cpu time spent up to now is      187.1 secs

     total energy              =    -355.47893976 Ry
     estimated scf accuracy    <       0.00025498 Ry

     iteration #  5     ecut=    30.00 Ry     beta= 0.70
     Davidson diagonalization with overlap
     ethr =  7.88E-08,  avg # of iterations =  2.0

     negative rho (up, down):  1.653E-02 0.000E+00

     total cpu time spent up to now is      191.0 secs

     total energy              =    -355.47895649 Ry
     estimated scf accuracy    <       0.00006171 Ry

     iteration #  6     ecut=    30.00 Ry     beta= 0.70
     Davidson diagonalization with overlap
     ethr =  3.51E-08,  avg # of iterations =  1.8

     negative rho (up, down):  1.653E-02 0.000E+00

     total cpu time spent up to now is      194.8 secs

     total energy              =    -355.47895981 Ry
     estimated scf accuracy    <       0.00008642 Ry

     iteration #  7     ecut=    30.00 Ry     beta= 0.70
     Davidson diagonalization with overlap
     ethr =  3.51E-08,  avg # of iterations =  1.0

     negative rho (up, down):  1.653E-02 0.000E+00

     total cpu time spent up to now is      198.3 secs

     total energy              =    -355.47896342 Ry
     estimated scf accuracy    <       0.00000120 Ry

     iteration #  8     ecut=    30.00 Ry     beta= 0.70
     Davidson diagonalization with overlap
     ethr =  6.83E-10,  avg # of iterations =  4.2

     negative rho (up, down):  1.653E-02 0.000E+00

     total cpu time spent up to now is      203.2 secs

     total energy              =    -355.47896361 Ry
     estimated scf accuracy    <       0.00000269 Ry

     iteration #  9     ecut=    30.00 Ry     beta= 0.70
     Davidson diagonalization with overlap
     ethr =  6.83E-10,  avg # of iterations =  2.0

     negative rho (up, down):  1.653E-02 0.000E+00

     total cpu time spent up to now is      207.1 secs

     total energy              =    -355.47896382 Ry
     estimated scf accuracy    <       0.00000034 Ry

     iteration # 10     ecut=    30.00 Ry     beta= 0.70
     Davidson diagonalization with overlap
     ethr =  1.93E-10,  avg # of iterations =  2.0

     negative rho (up, down):  1.653E-02 0.000E+00

     total cpu time spent up to now is      211.0 secs

     total energy              =    -355.47896384 Ry
     estimated scf accuracy    <       0.00000013 Ry

     iteration # 11     ecut=    30.00 Ry     beta= 0.70
     Davidson diagonalization with overlap
     ethr =  7.33E-11,  avg # of iterations =  2.0

     negative rho (up, down):  1.653E-02 0.000E+00

     total cpu time spent up to now is      214.9 secs

     total energy              =    -355.47896385 Ry
     estimated scf accuracy    <       0.00000002 Ry

     iteration # 12     ecut=    30.00 Ry     beta= 0.70
     Davidson diagonalization with overlap
     ethr =  1.18E-11,  avg # of iterations =  4.0

     negative rho (up, down):  1.653E-02 0.000E+00

     total cpu time spent up to now is      219.7 secs

     End of self-consistent calculation

          k = 0.0000 0.0000 0.0000 ( 52087 PWs)   bands (ev):

   -12.9580 -12.4695 -12.4390 -11.6049 -11.3169 -11.2906 -11.2775 -11.2064
   -11.1877 -10.9451 -10.7838 -10.7677 -10.7574 -10.7311 -10.4030  -9.8488
    -9.8375  -9.7573  -9.4940  -9.3457  -9.2697  -9.1940  -9.0227  -8.7587
    -8.7156  -8.3189  -8.0578  -8.0420  -7.9107  -7.8959  -7.8940  -7.8653
    -7.7928  -7.3863  -7.3699  -7.3612  -7.0433  -6.4113  -6.3742  -6.3739
    -6.2572  -6.2416  -6.2134  -5.5065  -5.1301  -4.8983  -4.7979  -4.7768
    -4.7636  -4.6933  -4.6240  -4.6122  -4.5782  -4.5769  -4.5757  -4.5450
    -4.5007  -4.4596  -4.4489  -4.1332  -4.1084  -4.1058  -4.0713  -4.0600
    -3.9876  -3.9352  -3.7991  -3.7774  -3.3326  -3.2156  -3.1527  -3.1374
    -2.9018  -2.8567  -2.6923  -2.6234  -2.6140  -2.4622  -2.4179  -2.4150
    -2.4095  -2.3090  -2.2962  -2.2911  -2.2369  -2.0304  -1.9931  -1.9283
    -1.8820  -1.8479  -1.1880  -1.0758  -1.0523  -0.9918  -0.4468  -0.2989
    -0.0901   0.1934   0.2019   0.2462   0.2482   0.2707   0.3265   0.3912
     0.6526   0.7267

          k = 0.0000 0.5000 0.0000 ( 52005 PWs)   bands (ev):

   -12.8313 -12.3416 -12.3114 -11.8959 -11.5037 -11.3932 -11.3669 -11.1821
   -11.0984 -11.0800 -11.0268 -10.8100 -10.5438 -10.5271 -10.2990 -10.1404
    -9.8097  -9.7257  -9.7139  -9.6363  -9.6192  -9.0033  -8.8850  -8.8592
    -8.4429  -8.3037  -8.2803  -8.2567  -7.7845  -7.6600  -7.4725  -7.4276
    -7.4163  -7.1501  -7.1094  -7.0884  -6.9858  -6.1939  -6.1769  -5.9355
    -5.9093  -5.9092  -5.8243  -5.5624  -5.3612  -5.1625  -5.0240  -5.0211
    -4.9671  -4.9253  -4.8965  -4.8764  -4.8307  -4.8192  -4.6467  -4.5155
    -4.4356  -4.4244  -4.4230  -4.3939  -4.2313  -4.2262  -4.2165  -4.1910
    -3.8399  -3.6898  -3.6858  -3.6817  -3.6803  -3.6438  -3.5044  -3.5017
    -3.4900  -3.3513  -3.1822  -3.0413  -3.0266  -3.0255  -2.5743  -2.5220
    -2.4586  -2.3590  -2.3145  -2.3046  -2.2961  -1.9698  -1.9535  -1.8893
    -1.8191  -1.7760  -1.2707  -1.1502  -0.9694  -0.8931  -0.2075   0.3186
     0.3666   0.3805   0.4733   0.6118   0.6445   0.6710   0.8402   0.8520
     0.9534   1.0359

          k = 0.0000-1.0000 0.0000 ( 51922 PWs)   bands (ev):

   -12.4621 -12.4620 -11.9686 -11.9677 -11.9397 -11.9386 -11.2420 -11.2420
   -10.8127 -10.8111 -10.7954 -10.7936 -10.7831 -10.7828 -10.4132 -10.4132
   -10.0107 -10.0102  -9.3719  -9.3713  -9.3578  -9.3572  -9.3032  -9.3027
    -7.8975  -7.8965  -7.8793  -7.8783  -7.7680  -7.7679  -7.7471  -7.7471
    -7.0074  -7.0074  -6.2648  -6.2565  -6.2417  -6.2341  -6.0338  -6.0333
    -5.7865  -5.7862  -5.2255  -5.2230  -5.2170  -5.2150  -5.1675  -5.1654
    -5.1648  -5.1639  -5.1631  -5.1606  -4.8674  -4.8674  -4.7221  -4.7209
    -4.7202  -4.7198  -4.6987  -4.6978  -4.6022  -4.6014  -4.2778  -4.2774
    -4.0852  -4.0813  -4.0756  -4.0718  -4.0608  -4.0607  -3.5701  -3.5699
    -3.4325  -3.4281  -3.4234  -3.4190  -3.3761  -3.3760  -2.5008  -2.5003
    -2.1467  -2.1309  -2.0870  -2.0764  -2.0711  -2.0645  -2.0316  -2.0188
    -1.9888  -1.9887  -1.1636  -1.1450  -1.0675  -1.0483   0.0938   0.0938
     0.5031   0.5047   0.7875   0.7879   0.9043   0.9045   0.9826   0.9828
     1.1114   1.1128

          k =-0.5000 0.0000 0.0000 ( 51914 PWs)   bands (ev):

   -12.8301 -12.8298 -11.8696 -11.8688 -11.4967 -11.4962 -11.1603 -11.1599
   -11.1429 -11.1429 -10.8406 -10.8396 -10.2028 -10.2022 -10.1651 -10.1648
   -10.1036 -10.1029  -9.7556  -9.7555  -8.9446  -8.9434  -8.6564  -8.6557
    -8.4109  -8.4104  -8.3783  -8.3761  -7.9082  -7.9079  -7.8405  -7.8404
    -7.5733  -7.5720  -7.3621  -7.3621  -6.9025  -6.9001  -6.3942  -6.3938
    -6.3030  -6.3025  -5.3924  -5.3910  -5.1897  -5.1885  -5.0795  -5.0793
    -4.9765  -4.9747  -4.6296  -4.6295  -4.4782  -4.4779  -4.4000  -4.3988
    -4.3481  -4.3476  -4.0430  -4.0426  -4.0274  -4.0272  -4.0041  -4.0033
    -3.6184  -3.6172  -3.5354  -3.5344  -3.4926  -3.4924  -3.4374  -3.4373
    -3.2801  -3.2797  -2.9922  -2.9916  -2.4917  -2.4873  -2.4579  -2.4577
    -2.3660  -2.3652  -2.2451  -2.2450  -2.1162  -2.1097  -1.9331  -1.9314
    -1.7740  -1.7724  -1.5423  -1.5412  -0.3757  -0.3682  -0.1443  -0.1426
    -0.0395  -0.0282   0.0210   0.0214   0.4909   0.4909   0.5041   0.5057
     0.6148   0.6154

          k =-0.5000 0.5000 0.0000 ( 51960 PWs)   bands (ev):

   -12.7031 -12.7029 -11.7654 -11.7651 -11.7397 -11.7390 -11.3940 -11.3935
   -10.9009 -10.9006 -10.7705 -10.7700 -10.7184 -10.7174 -10.0869 -10.0864
    -9.9981  -9.9976  -9.6336  -9.6334  -9.1996  -9.1994  -8.9456  -8.9450
    -8.3232  -8.3226  -8.2541  -8.2537  -7.5838  -7.5828  -7.4431  -7.4426
    -7.4399  -7.4378  -7.1067  -7.1064  -6.8383  -6.8358  -5.9625  -5.9620
    -5.8282  -5.8279  -5.4408  -5.4397  -5.4158  -5.4150  -5.2500  -5.2489
    -5.0488  -5.0484  -4.8930  -4.8929  -4.5974  -4.5970  -4.4511  -4.4498
    -4.4059  -4.4053  -4.3220  -4.3218  -4.0906  -4.0894  -4.0446  -4.0434
    -3.9441  -3.9436  -3.6441  -3.6434  -3.6264  -3.6260  -3.4915  -3.4905
    -3.3771  -3.3764  -3.2599  -3.2591  -3.1990  -3.1989  -2.9638  -2.9637
    -2.4009  -2.3961  -2.3477  -2.3466  -2.0666  -2.0605  -1.9359  -1.9352
    -1.7053  -1.7035  -1.4839  -1.4827  -0.1918  -0.1859  -0.1597  -0.1517
     0.2944   0.2963   0.7686   0.7687   0.8709   0.8712   0.9658   0.9670
     1.0456   1.0470

          k =-0.5000-1.0000 0.0000 ( 52096 PWs)   bands (ev):

   -12.3331 -12.3331 -12.3329 -12.3327 -11.3600 -11.3598 -11.3589 -11.3585
   -11.1272 -11.1271 -11.1267 -11.1264 -10.3807 -10.3805 -10.3790 -10.3785
    -9.7487  -9.7486  -9.7482  -9.7478  -9.2931  -9.2929  -9.2928  -9.2925
    -7.8378  -7.8377  -7.8376  -7.8372  -7.7742  -7.7738  -7.7717  -7.7717
    -6.8216  -6.8202  -6.8138  -6.8130  -6.0160  -6.0155  -6.0145  -6.0142
    -5.6681  -5.6678  -5.6670  -5.6667  -5.1313  -5.1309  -5.1302  -5.1299
    -5.0641  -5.0641  -5.0608  -5.0607  -4.6869  -4.6868  -4.6866  -4.6863
    -4.6408  -4.6398  -4.6395  -4.6388  -4.3938  -4.3931  -4.3909  -4.3906
    -4.2078  -4.2078  -4.2054  -4.2050  -3.8598  -3.8598  -3.8565  -3.8563
    -3.3142  -3.3141  -3.3128  -3.3125  -3.2191  -3.2189  -3.2181  -3.2181
    -2.1693  -2.1625  -2.1550  -2.1501  -2.0117  -2.0102  -2.0083  -2.0050
    -1.6976  -1.6973  -1.6972  -1.6965  -0.1838  -0.1826  -0.1688  -0.1646
     0.8898   0.8904   0.8914   0.8914   1.1027   1.1028   1.1037   1.1040
     1.1686   1.1705

     the Fermi energy is    -1.8914 ev

!    total energy              =    -355.47896385 Ry
     estimated scf accuracy    <          1.0E-08 Ry
     smearing contrib. (-TS)   =      -0.00398781 Ry
     internal energy E=F+TS    =    -355.47497604 Ry

     The total energy is F=E-TS. E is the sum of the following terms:
     one-electron contribution =   -2920.14058739 Ry
     hartree contribution      =    1489.17559376 Ry
     xc contribution           =    -132.56917771 Ry
     ewald contribution        =    1208.05919530 Ry

     convergence has been achieved in  12 iterations

     negative rho (up, down):  1.653E-02 0.000E+00

     Forces acting on atoms (cartesian axes, Ry/au):

     atom    1 type  2   force =     0.00035847   -0.02513902    0.00620652
     atom    2 type  2   force =     0.00035846    0.02513901    0.00620651
     atom    3 type  2   force =    -0.00034550   -0.02513534    0.00619610
     atom    4 type  2   force =    -0.00034550    0.02513534    0.00619609
     atom    5 type  2   force =    -0.00030596   -0.02513761    0.00620854
     atom    6 type  2   force =    -0.00030595    0.02513760    0.00620855
     atom    7 type  2   force =     0.00030961   -0.02513388    0.00620845
     atom    8 type  2   force =     0.00030961    0.02513387    0.00620844
     atom    9 type  2   force =    -0.00029831   -0.02513438    0.00619446
     atom   10 type  2   force =    -0.00029831    0.02513437    0.00619447
     atom   11 type  2   force =     0.00031235   -0.02513362    0.00619272
     atom   12 type  2   force =     0.00031236    0.02513362    0.00619272
     atom   13 type  2   force =     0.00036175   -0.02513517    0.00620806
     atom   14 type  2   force =     0.00036176    0.02513517    0.00620806
     atom   15 type  2   force =    -0.00032788   -0.02514024    0.00621096
     atom   16 type  2   force =    -0.00032787    0.02514024    0.00621095
     atom   17 type  1   force =    -0.00091266    0.00000000    0.00110398
     atom   18 type  1   force =     0.00089236   -0.00000001    0.00113288
     atom   19 type  1   force =    -0.00076100    0.00000000    0.00110003
     atom   20 type  1   force =     0.00073479   -0.00000003    0.00112933
     atom   21 type  1   force =    -0.00090456   -0.00000001    0.00114059
     atom   22 type  1   force =     0.00086662   -0.00000000    0.00110915
     atom   23 type  1   force =    -0.00073751   -0.00000000    0.00112696
     atom   24 type  1   force =     0.00072263   -0.00000002    0.00111733
     atom   25 type  1   force =    -0.00003080   -0.00000001   -0.00974969
     atom   26 type  1   force =     0.00000474    0.00000002   -0.00992440
     atom   27 type  1   force =    -0.00001582    0.00000002   -0.00988900
     atom   28 type  1   force =     0.00002218    0.00000002   -0.00984870
     atom   29 type  1   force =     0.00016852   -0.00000002   -0.00974408
     atom   30 type  1   force =     0.00006806   -0.00000003   -0.00992958
     atom   31 type  1   force =     0.00002794   -0.00000008   -0.00990772
     atom   32 type  1   force =     0.00006885    0.00000002   -0.00987614
     atom   33 type  1   force =    -0.00000005   -0.00014146    0.00085299
     atom   34 type  1   force =     0.00003611    0.00012698    0.00078121
     atom   35 type  1   force =     0.00001892   -0.00009035   -0.00106972
     atom   36 type  1   force =     0.00001880    0.00009039   -0.00106969
     atom   37 type  1   force =    -0.00000155   -0.00002887   -0.00117317
     atom   38 type  1   force =    -0.00000158    0.00002887   -0.00117327
     atom   39 type  1   force =     0.00003613   -0.00012705    0.00078115
     atom   40 type  1   force =     0.00000010    0.00014158    0.00085290
     atom   41 type  1   force =     0.00277506   -0.00003213    0.00009657
     atom   42 type  1   force =     0.00258295   -0.00002775    0.00005519
     atom   43 type  1   force =    -0.00251109   -0.00002814    0.00006960
     atom   44 type  1   force =    -0.00251103    0.00002822    0.00006965
     atom   45 type  1   force =    -0.00259718    0.00000213    0.00003436
     atom   46 type  1   force =    -0.00259713   -0.00000211    0.00003437
     atom   47 type  1   force =     0.00258303    0.00002780    0.00005521
     atom   48 type  1   force =     0.00277504    0.00003213    0.00009654
     atom   49 type  1   force =     0.00587418   -0.00000000   -0.00343463
     atom   50 type  1   force =    -0.00620038   -0.00000011   -0.00337008
     atom   51 type  1   force =     0.00889706   -0.00000003   -0.00361805
     atom   52 type  1   force =    -0.00810190    0.00000001   -0.00371821
     atom   53 type  1   force =     0.00682826   -0.00000009   -0.00361612
     atom   54 type  1   force =    -0.00650850    0.00000006   -0.00348325
     atom   55 type  1   force =     0.00775648    0.00000009   -0.00357428
     atom   56 type  1   force =    -0.00949518   -0.00000003   -0.00382178

     Total force =     0.024948     Total SCF correction =     0.000117
     Energy error            =      6.2E-04 Ry
     Gradient error          =      9.5E-03 Ry/Bohr

     number of scf cycles    =   3
     number of bfgs steps    =   2

     energy             old  =    -355.4783483562 Ry
     energy             new  =    -355.4789638528 Ry

     CASE: energy            _new < energy            _old

     new trust radius        =       0.0149683622 bohr
     new conv_thr            =       0.0000000123 Ry


ATOMIC_POSITIONS (alat)
H             0.0000000000       -0.0675500000       -0.0675500000    0   0   0
H             0.0000000000        0.0675500000       -0.0675500000    0   0   0
H             0.2500000000       -0.0675500000       -0.0675500000    0   0   0
H             0.2500000000        0.0675500000       -0.0675500000    0   0   0
H             0.2500000000        0.1824500000       -0.0675500000    0   0   0
H             0.2500000000        0.3175500000       -0.0675500000    0   0   0
H             0.5000000000        0.1824500000       -0.0675500000    0   0   0
H             0.5000000000        0.3175500000       -0.0675500000    0   0   0
H             0.7500000000        0.1824500000       -0.0675500000    0   0   0
H             0.7500000000        0.3175500000       -0.0675500000    0   0   0
H             0.0000000000        0.1824500000       -0.0675500000    0   0   0
H             0.0000000000        0.3175500000       -0.0675500000    0   0   0
H             0.5000000000       -0.0675500000       -0.0675500000    0   0   0
H             0.5000000000        0.0675500000       -0.0675500000    0   0   0
H             0.7500000000       -0.0675500000       -0.0675500000    0   0   0
H             0.7500000000        0.0675500000       -0.0675500000    0   0   0
Si            0.0000000000        0.0000000000        0.0000000000    0   0   0
Si            0.2500000000        0.0000000000        0.0000000000    0   0   0
Si            0.0000000000        0.2500000000        0.0000000000    0   0   0
Si            0.2500000000        0.2500000000        0.0000000000    0   0   0
Si            0.5000000000        0.0000000000        0.0000000000    0   0   0
Si            0.7500000000        0.0000000000        0.0000000000    0   0   0
Si            0.5000000000        0.2500000000        0.0000000000    0   0   0
Si            0.7500000000        0.2500000000        0.0000000000    0   0   0
Si            0.1250000000        0.0000000000        0.0883883480    0   0   0
Si            0.3750000000        0.0000000000        0.0883883480    0   0   0
Si            0.1250000000        0.2500000000        0.0883883480    0   0   0
Si            0.3750000000        0.2500000000        0.0883883480    0   0   0
Si            0.6250000000        0.0000000000        0.0883883480    0   0   0
Si            0.8750000000        0.0000000000        0.0883883480    0   0   0
Si            0.6250000000        0.2500000000        0.0883883480    0   0   0
Si            0.8750000000        0.2500000000        0.0883883480    0   0   0
Si            0.6249888641        0.3749760571        0.1766898264
Si            0.1250046995        0.1250199371        0.1766817506
Si            0.3750012608        0.1249798067        0.1765984546
Si            0.3750012541        0.3750201976        0.1765984395
Si            0.8749903160        0.1249929405        0.1765863270
Si            0.8749903149        0.3750070574        0.1765863519
Si            0.1250046741        0.3749800816        0.1766817600
Si            0.6249888328        0.1250239238        0.1766898464
Si            0.7503855772        0.3749930230        0.2654255040
Si            0.2503507747        0.1249994663        0.2654163729
Si            0.4996608375        0.1249956302        0.2654202905
Si            0.4996608123        0.3750043509        0.2654202827
Si           -0.0003477853        0.1250013915        0.2654138609
Si           -0.0003478152        0.3749985792        0.2654138620
Si            0.2503507397        0.3750005400        0.2654163784
Si            0.7503855739        0.1250069899        0.2654255028
Si            0.0015674573       -0.0000000069        0.3529581708
Si            0.2483945491        0.0000000290        0.3529638820
Si            0.0029011931        0.2499999946        0.3529442467
Si            0.2471872494        0.2499999947        0.3529253267
Si            0.5026822247        0.0000000145        0.3529334250
Si            0.7483591499       -0.0000000005        0.3529476471
Si            0.5017716062        0.2499999864        0.3529392536
Si            0.7460272148        0.2500000177        0.3529155058



     Writing config-only to output data dir ./si.save/
     NEW-OLD atomic charge density approx. for the potential

     negative rho (up, down):  1.654E-02 0.000E+00

     total cpu time spent up to now is      221.7 secs

     per-process dynamical memory:   635.9 Mb

     Self-consistent Calculation

     iteration #  1     ecut=    30.00 Ry     beta= 0.70
     Davidson diagonalization with overlap
     ethr =  1.00E-06,  avg # of iterations =  4.0

     negative rho (up, down):  1.654E-02 0.000E+00

     total cpu time spent up to now is      227.2 secs

     total energy              =    -355.47975889 Ry
     estimated scf accuracy    <       0.00027172 Ry

     iteration #  2     ecut=    30.00 Ry     beta= 0.70
     Davidson diagonalization with overlap
     ethr =  1.54E-07,  avg # of iterations =  4.3

     negative rho (up, down):  1.654E-02 0.000E+00

     total cpu time spent up to now is      232.5 secs

     total energy              =    -355.47960685 Ry
     estimated scf accuracy    <       0.00149269 Ry

     iteration #  3     ecut=    30.00 Ry     beta= 0.70
     Davidson diagonalization with overlap
     ethr =  1.54E-07,  avg # of iterations =  4.2

     negative rho (up, down):  1.654E-02 0.000E+00

     total cpu time spent up to now is      237.4 secs

     total energy              =    -355.47956471 Ry
     estimated scf accuracy    <       0.00726975 Ry

     iteration #  4     ecut=    30.00 Ry     beta= 0.70
     Davidson diagonalization with overlap
     ethr =  1.54E-07,  avg # of iterations =  2.0

     negative rho (up, down):  1.654E-02 0.000E+00

     total cpu time spent up to now is      241.4 secs

     total energy              =    -355.47983604 Ry
     estimated scf accuracy    <       0.00061464 Ry

     iteration #  5     ecut=    30.00 Ry     beta= 0.70
     Davidson diagonalization with overlap
     ethr =  1.54E-07,  avg # of iterations =  2.0

     negative rho (up, down):  1.654E-02 0.000E+00

     total cpu time spent up to now is      245.3 secs

     total energy              =    -355.47987160 Ry
     estimated scf accuracy    <       0.00013694 Ry

     iteration #  6     ecut=    30.00 Ry     beta= 0.70
     Davidson diagonalization with overlap
     ethr =  7.78E-08,  avg # of iterations =  1.8

     negative rho (up, down):  1.654E-02 0.000E+00

     total cpu time spent up to now is      249.0 secs

     total energy              =    -355.47987859 Ry
     estimated scf accuracy    <       0.00017738 Ry

     iteration #  7     ecut=    30.00 Ry     beta= 0.70
     Davidson diagonalization with overlap
     ethr =  7.78E-08,  avg # of iterations =  1.0

     negative rho (up, down):  1.654E-02 0.000E+00

     total cpu time spent up to now is      252.5 secs

     total energy              =    -355.47988623 Ry
     estimated scf accuracy    <       0.00000125 Ry

     iteration #  8     ecut=    30.00 Ry     beta= 0.70
     Davidson diagonalization with overlap
     ethr =  7.10E-10,  avg # of iterations =  4.7

     negative rho (up, down):  1.654E-02 0.000E+00

     total cpu time spent up to now is      257.8 secs

[...]
     Davidson diagonalization with overlap
     ethr =  6.02E-11,  avg # of iterations =  2.3

     negative rho (up, down):  1.674E-02 0.000E+00

     total cpu time spent up to now is     3922.7 secs

     total energy              =    -355.97043719 Ry
     estimated scf accuracy    <       0.00000002 Ry

     iteration #  7     ecut=    30.00 Ry     beta= 0.70
     Davidson diagonalization with overlap
     ethr =  1.33E-11,  avg # of iterations =  3.3

     negative rho (up, down):  1.674E-02 0.000E+00

     total cpu time spent up to now is     3926.9 secs

     total energy              =    -355.97043720 Ry
     estimated scf accuracy    <          5.9E-09 Ry

     iteration #  8     ecut=    30.00 Ry     beta= 0.70
     Davidson diagonalization with overlap
     ethr =  3.33E-12,  avg # of iterations =  2.2

     negative rho (up, down):  1.674E-02 0.000E+00

     total cpu time spent up to now is     3931.1 secs

     End of self-consistent calculation

          k = 0.0000 0.0000 0.0000 ( 52087 PWs)   bands (ev):

   -13.1844 -12.9685 -12.1996 -11.8773 -11.4730 -11.3834 -11.1861 -11.1641
   -11.0694 -10.9097 -10.8163 -10.6807 -10.6271 -10.5029 -10.2776 -10.2395
   -10.1524  -9.9178  -9.8159  -9.6260  -9.3406  -9.3141  -9.1239  -9.1154
    -8.2444  -8.0357  -7.9841  -7.9637  -7.8797  -7.8790  -7.8716  -7.8293
    -7.7582  -7.4578  -7.1913  -7.0884  -6.6140  -6.5800  -6.2863  -6.2512
    -6.1915  -6.0544  -5.8115  -5.3687  -5.2833  -5.1271  -5.0717  -5.0241
    -4.9808  -4.9046  -4.8184  -4.7464  -4.5544  -4.4521  -4.4072  -4.3337
    -4.3251  -4.2755  -4.1966  -4.1819  -4.1006  -3.9558  -3.9478  -3.9312
    -3.8340  -3.7863  -3.6772  -3.5362  -3.5204  -3.4296  -3.3488  -3.3487
    -3.1058  -3.0573  -2.9979  -2.8326  -2.7847  -2.7272  -2.5549  -2.4530
    -2.3642  -2.3147  -2.2973  -2.2783  -2.2446  -2.1110  -2.0991  -1.9681
    -1.5583  -1.5452  -0.6814  -0.6576  -0.5120  -0.4944  -0.1781  -0.0358
     0.1472   0.2313   0.2715   0.3201   0.4801   0.5055   0.5284   0.7641
     0.7659   0.7732

          k = 0.0000 0.5000 0.0000 ( 52005 PWs)   bands (ev):

   -13.0499 -12.8308 -12.0785 -12.0224 -11.7680 -11.7646 -11.3591 -11.1653
   -11.0873 -11.0262 -10.8047 -10.6421 -10.6070 -10.3269 -10.1419 -10.1312
    -9.8275  -9.7971  -9.7438  -9.7328  -9.6410  -9.4964  -9.4418  -8.5308
    -8.5010  -8.4448  -8.1446  -8.0640  -7.9326  -7.8012  -7.4366  -7.2966
    -7.2486  -7.1997  -7.1842  -6.6530  -6.5444  -6.5183  -5.7900  -5.7805
    -5.7800  -5.7724  -5.7141  -5.5340  -5.4346  -5.3880  -5.3092  -5.1685
    -5.1430  -5.1067  -5.0342  -4.8988  -4.7641  -4.7388  -4.6771  -4.4870
    -4.3930  -4.3792  -4.3540  -4.3424  -4.1979  -4.0609  -3.9485  -3.9264
    -3.8616  -3.7393  -3.5885  -3.5664  -3.5022  -3.4868  -3.4842  -3.4827
    -3.4098  -3.3478  -3.2696  -3.1870  -3.1698  -3.1014  -2.9306  -2.8244
    -2.7088  -2.6746  -2.4250  -2.3638  -2.2857  -2.2398  -1.9219  -1.8725
    -0.9910  -0.9489  -0.6636  -0.6108  -0.2027  -0.1418  -0.0025   0.0734
     0.4110   0.4183   0.5364   0.7134   0.7168   0.8395   0.8624   1.0099
     1.0384   1.0779

          k = 0.0000-1.0000 0.0000 ( 51922 PWs)   bands (ev):

   -12.6535 -12.6534 -12.4233 -12.4229 -11.7118 -11.7117 -11.4533 -11.4529
   -11.0412 -11.0411 -10.6635 -10.6630 -10.5341 -10.5325 -10.2251 -10.2244
    -9.8458  -9.8450  -9.6576  -9.6553  -9.4662  -9.4650  -9.1162  -9.1161
    -8.2325  -8.2319  -8.1510  -8.1503  -7.8495  -7.8486  -7.4475  -7.4475
    -6.6350  -6.6349  -6.5214  -6.5172  -6.3008  -6.3004  -5.8449  -5.8415
    -5.6765  -5.6758  -5.5115  -5.5112  -5.4397  -5.4363  -5.1406  -5.1392
    -5.0780  -5.0765  -4.9634  -4.9621  -4.8925  -4.8922  -4.7972  -4.7955
    -4.6255  -4.6247  -4.5326  -4.5321  -4.4099  -4.4059  -4.2385  -4.2360
    -4.1779  -4.1776  -3.8239  -3.8233  -3.8173  -3.8168  -3.5254  -3.5251
    -3.3967  -3.3964  -3.2873  -3.2872  -3.2153  -3.2149  -3.0994  -3.0961
    -3.0282  -3.0270  -2.3504  -2.3503  -1.9143  -1.9084  -1.8961  -1.8911
    -0.7167  -0.7138  -0.6633  -0.6592   0.0339   0.0401   0.3618   0.3618
     0.4336   0.4358   0.4744   0.4759   1.0334   1.0349   1.1490   1.1502
     1.1779   1.1789

          k =-0.5000 0.0000 0.0000 ( 51914 PWs)   bands (ev):

   -13.0967 -13.0941 -11.9665 -11.9632 -11.4963 -11.4940 -11.2695 -11.2660
   -11.0617 -11.0603 -10.6811 -10.6803 -10.3039 -10.3030 -10.0591 -10.0539
   -10.0476 -10.0467  -9.9600  -9.9592  -9.7911  -9.7897  -8.4770  -8.4749
    -8.3120  -8.3090  -8.0712  -8.0701  -7.8496  -7.8466  -7.8356  -7.8338
    -7.7328  -7.7324  -7.1354  -7.1346  -6.5637  -6.5613  -6.2732  -6.2728
    -6.1390  -6.1388  -5.7108  -5.7081  -5.0973  -5.0953  -5.0548  -5.0529
    -4.8967  -4.8945  -4.7560  -4.7553  -4.5881  -4.5866  -4.3161  -4.3142
    -4.2901  -4.2891  -4.0868  -4.0863  -3.9647  -3.9630  -3.7740  -3.7740
    -3.7052  -3.7037  -3.6281  -3.6264  -3.4511  -3.4505  -3.3686  -3.3667
    -3.2346  -3.2332  -3.2023  -3.2011  -2.7728  -2.7685  -2.7681  -2.7671
    -2.3318  -2.3291  -2.3272  -2.3234  -2.0839  -2.0816  -2.0750  -2.0735
    -1.5385  -1.5379  -0.6668  -0.6654  -0.3205  -0.3171   0.0293   0.0327
     0.3110   0.3131   0.4941   0.4973   0.5367   0.5407   0.6266   0.6281
     0.8188   0.8204

          k =-0.5000 0.5000 0.0000 ( 51960 PWs)   bands (ev):

   -12.9612 -12.9587 -11.9285 -11.9258 -11.8421 -11.8392 -11.3815 -11.3790
   -11.0261 -11.0252 -10.6172 -10.6133 -10.5533 -10.5529  -9.9843  -9.9841
    -9.9355  -9.9344  -9.7172  -9.7146  -9.6758  -9.6750  -9.0207  -9.0189
    -8.3499  -8.3486  -8.0561  -8.0530  -7.8180  -7.8174  -7.5173  -7.5154
    -7.2513  -7.2497  -6.9029  -6.9016  -6.5145  -6.5120  -5.8437  -5.8435
    -5.7277  -5.7251  -5.7012  -5.7011  -5.4257  -5.4249  -5.2455  -5.2446
    -5.0133  -5.0110  -4.8973  -4.8962  -4.8479  -4.8465  -4.4231  -4.4224
    -4.3609  -4.3608  -4.2923  -4.2919  -3.9860  -3.9857  -3.8978  -3.8965
    -3.8301  -3.8292  -3.7016  -3.6994  -3.5842  -3.5830  -3.4919  -3.4909
    -3.3297  -3.3281  -3.2084  -3.2076  -3.1581  -3.1567  -2.9922  -2.9907
    -2.7579  -2.7572  -2.6662  -2.6656  -2.2411  -2.2398  -1.8766  -1.8755
    -0.9584  -0.9565  -0.6306  -0.6292  -0.0030   0.0008   0.3509   0.3511
     0.5453   0.5477   0.7325   0.7362   0.8079   0.8086   0.8974   0.9007
     1.1931   1.1957

          k =-0.5000-1.0000 0.0000 ( 52096 PWs)   bands (ev):

   -12.5642 -12.5631 -12.5575 -12.5559 -11.5090 -11.5068 -11.4804 -11.4781
   -11.0753 -11.0731 -11.0299 -11.0268 -10.2679 -10.2678 -10.2491 -10.2489
    -9.6180  -9.6175  -9.5770  -9.5768  -9.5009  -9.4986  -9.4308  -9.4301
    -8.1805  -8.1803  -8.1496  -8.1495  -7.7272  -7.7259  -7.5321  -7.5320
    -6.6818  -6.6797  -6.6208  -6.6188  -6.1595  -6.1574  -6.0260  -6.0250
    -5.6198  -5.6188  -5.4850  -5.4844  -5.4209  -5.4178  -5.2663  -5.2645
    -5.1222  -5.1217  -4.8000  -4.7985  -4.7486  -4.7473  -4.6871  -4.6870
    -4.5400  -4.5370  -4.5292  -4.5244  -4.4048  -4.4039  -4.3350  -4.3343
    -4.0790  -4.0783  -4.0076  -4.0064  -3.7371  -3.7355  -3.5911  -3.5911
    -3.4515  -3.4513  -3.2328  -3.2322  -3.2152  -3.2120  -3.1423  -3.1416
    -2.9888  -2.9888  -2.7358  -2.7344  -1.9005  -1.8956  -1.8802  -1.8745
    -0.7137  -0.7105  -0.6607  -0.6571   0.5084   0.5121   0.5309   0.5312
     0.6708   0.6720   0.7293   0.7297   1.0159   1.0192   1.0818   1.0833
     1.1254   1.1293

     the Fermi energy is    -1.7062 ev

!    total energy              =    -355.97043720 Ry
     estimated scf accuracy    <          7.7E-10 Ry
     smearing contrib. (-TS)   =      -0.00001258 Ry
     internal energy E=F+TS    =    -355.97042462 Ry

     The total energy is F=E-TS. E is the sum of the following terms:
     one-electron contribution =   -2995.64282814 Ry
     hartree contribution      =    1527.37727718 Ry
     xc contribution           =    -133.41641963 Ry
     ewald contribution        =    1245.71154597 Ry

     convergence has been achieved in   8 iterations

     negative rho (up, down):  1.674E-02 0.000E+00

     Forces acting on atoms (cartesian axes, Ry/au):

     atom    1 type  2   force =    -0.00202910   -0.02458015    0.00655549
     atom    2 type  2   force =    -0.00202910    0.02458015    0.00655549
     atom    3 type  2   force =     0.00175110   -0.02497715    0.00701843
     atom    4 type  2   force =     0.00175111    0.02497715    0.00701844
     atom    5 type  2   force =     0.00197341   -0.02458744    0.00656576
     atom    6 type  2   force =     0.00197341    0.02458744    0.00656576
     atom    7 type  2   force =    -0.00205570   -0.02458883    0.00656544
     atom    8 type  2   force =    -0.00205570    0.02458883    0.00656544
     atom    9 type  2   force =     0.00174360   -0.02498314    0.00703670
     atom   10 type  2   force =     0.00174360    0.02498314    0.00703670
     atom   11 type  2   force =    -0.00181211   -0.02498540    0.00703237
     atom   12 type  2   force =    -0.00181211    0.02498540    0.00703237
     atom   13 type  2   force =    -0.00184204   -0.02498109    0.00701768
     atom   14 type  2   force =    -0.00184204    0.02498109    0.00701768
     atom   15 type  2   force =     0.00196847   -0.02457665    0.00655157
     atom   16 type  2   force =     0.00196847    0.02457665    0.00655157
     atom   17 type  1   force =     0.00505562   -0.00000001   -0.00071792
     atom   18 type  1   force =    -0.00565276   -0.00000000    0.00135534
     atom   19 type  1   force =     0.00581460   -0.00000001    0.00133268
     atom   20 type  1   force =    -0.00492799   -0.00000001   -0.00067516
     atom   21 type  1   force =     0.00586852   -0.00000000    0.00131924
     atom   22 type  1   force =    -0.00491361   -0.00000000   -0.00076258
     atom   23 type  1   force =     0.00510617    0.00000000   -0.00072027
     atom   24 type  1   force =    -0.00564419    0.00000000    0.00129156
     atom   25 type  1   force =    -0.00626442   -0.00000005   -0.03709055
     atom   26 type  1   force =    -0.00034633    0.00000001    0.01390452
     atom   27 type  1   force =     0.00597033   -0.00000002   -0.03676663
     atom   28 type  1   force =    -0.00030966   -0.00000002    0.00527810
     atom   29 type  1   force =     0.00592871    0.00000001   -0.03765925
     atom   30 type  1   force =    -0.00024642    0.00000000    0.00451658
     atom   31 type  1   force =    -0.00633727    0.00000002   -0.03757108
     atom   32 type  1   force =    -0.00023253   -0.00000001    0.01328760
     atom   33 type  1   force =     0.00018790    0.00010160    0.00005513
     atom   34 type  1   force =    -0.00017195    0.00009767   -0.00034005
     atom   35 type  1   force =    -0.00012496   -0.00017880    0.00003966
     atom   36 type  1   force =    -0.00012495    0.00017879    0.00003969
     atom   37 type  1   force =     0.00025477   -0.00009775    0.00014524
     atom   38 type  1   force =     0.00025475    0.00009776    0.00014522
     atom   39 type  1   force =    -0.00017195   -0.00009761   -0.00034006
     atom   40 type  1   force =     0.00018795   -0.00010161    0.00005510
     atom   41 type  1   force =    -0.00009337   -0.00005563    0.00048763
     atom   42 type  1   force =     0.00037482    0.00011877   -0.00018440
     atom   43 type  1   force =    -0.00007479    0.00014938    0.00025352
     atom   44 type  1   force =    -0.00007475   -0.00014934    0.00025349
     atom   45 type  1   force =     0.00034103   -0.00001015   -0.00003270
     atom   46 type  1   force =     0.00034105    0.00001016   -0.00003271
     atom   47 type  1   force =     0.00037479   -0.00011875   -0.00018439
     atom   48 type  1   force =    -0.00009334    0.00005558    0.00048763
     atom   49 type  1   force =    -0.00007181   -0.00000000   -0.00005312
     atom   50 type  1   force =     0.00046082   -0.00000004   -0.00000507
     atom   51 type  1   force =    -0.00004343   -0.00000003    0.00022459
     atom   52 type  1   force =     0.00021063    0.00000002    0.00002947
     atom   53 type  1   force =    -0.00032531   -0.00000001   -0.00021037
     atom   54 type  1   force =     0.00007991    0.00000002   -0.00002311
     atom   55 type  1   force =     0.00013097   -0.00000001    0.00015437
     atom   56 type  1   force =    -0.00009284    0.00000005    0.00002614

     Total force =     0.001587     Total SCF correction =     0.000041
     Energy error            =      6.3E-06 Ry
     Gradient error          =      4.9E-04 Ry/Bohr

     bfgs converged in  61 scf cycles and  60 bfgs steps
     (criteria: energy <  5.0E-05 Ry, force <  5.0E-04 Ry/Bohr)

     End of BFGS Geometry Optimization

     Final energy             =    -355.9704371982 Ry

     File ./si.bfgs deleted, as requested
Begin final coordinates

ATOMIC_POSITIONS (alat)
H             0.0000000000       -0.0675500000       -0.0675500000    0   0   0
H             0.0000000000        0.0675500000       -0.0675500000    0   0   0
H             0.2500000000       -0.0675500000       -0.0675500000    0   0   0
H             0.2500000000        0.0675500000       -0.0675500000    0   0   0
H             0.2500000000        0.1824500000       -0.0675500000    0   0   0
H             0.2500000000        0.3175500000       -0.0675500000    0   0   0
H             0.5000000000        0.1824500000       -0.0675500000    0   0   0
H             0.5000000000        0.3175500000       -0.0675500000    0   0   0
H             0.7500000000        0.1824500000       -0.0675500000    0   0   0
H             0.7500000000        0.3175500000       -0.0675500000    0   0   0
H             0.0000000000        0.1824500000       -0.0675500000    0   0   0
H             0.0000000000        0.3175500000       -0.0675500000    0   0   0
H             0.5000000000       -0.0675500000       -0.0675500000    0   0   0
H             0.5000000000        0.0675500000       -0.0675500000    0   0   0
H             0.7500000000       -0.0675500000       -0.0675500000    0   0   0
H             0.7500000000        0.0675500000       -0.0675500000    0   0   0
Si            0.0000000000        0.0000000000        0.0000000000    0   0   0
Si            0.2500000000        0.0000000000        0.0000000000    0   0   0
Si            0.0000000000        0.2500000000        0.0000000000    0   0   0
Si            0.2500000000        0.2500000000        0.0000000000    0   0   0
Si            0.5000000000        0.0000000000        0.0000000000    0   0   0
Si            0.7500000000        0.0000000000        0.0000000000    0   0   0
Si            0.5000000000        0.2500000000        0.0000000000    0   0   0
Si            0.7500000000        0.2500000000        0.0000000000    0   0   0
Si            0.1250000000        0.0000000000        0.0883883480    0   0   0
Si            0.3750000000        0.0000000000        0.0883883480    0   0   0
Si            0.1250000000        0.2500000000        0.0883883480    0   0   0
Si            0.3750000000        0.2500000000        0.0883883480    0   0   0
Si            0.6250000000        0.0000000000        0.0883883480    0   0   0
Si            0.8750000000        0.0000000000        0.0883883480    0   0   0
Si            0.6250000000        0.2500000000        0.0883883480    0   0   0
Si            0.8750000000        0.2500000000        0.0883883480    0   0   0
Si            0.6248087637        0.3749957391        0.1724983001
Si            0.1248244035        0.1249777140        0.1726493417
Si            0.3748133788        0.1256857638        0.1816078158
Si            0.3748133786        0.3743142341        0.1816078089
Si            0.8748009532        0.1243224300        0.1814483616
Si            0.8748009567        0.3756775707        0.1814483656
Si            0.1248244048        0.3750222779        0.1726493485
Si            0.6248087540        0.1250042622        0.1724983005
Si            0.7451212741        0.3827762030        0.2677036911
Si            0.2450001624        0.1326732954        0.2680607422
Si            0.5046014616        0.1326420963        0.2678468350
Si            0.5046014562        0.3673578643        0.2678468401
Si            0.0043897362        0.1172217887        0.2678739231
Si            0.0043897344        0.3827782261        0.2678739313
Si            0.2450001690        0.3673267090        0.2680607432
Si            0.7451212684        0.1172237906        0.2677036894
Si            0.0412136265        0.0000000109        0.3633727011
Si            0.1861680353        0.0000000061        0.3134090451
Si            0.0630120984        0.2500000107        0.3131064158
Si            0.2078469176        0.2500000027        0.3632670261
Si            0.5634315799       -0.0000000220        0.3133570066
Si            0.7084027675       -0.0000000074        0.3632136562
Si            0.5416048158        0.2499999831        0.3630257478
Si            0.6865769558        0.2499999936        0.3131464681
End final coordinates



     Writing all to output data dir ./si.save/
 
     init_run     :      3.39s CPU      6.85s WALL (       1 calls)
     electrons    :   3717.63s CPU   3806.98s WALL (      61 calls)
     update_pot   :     25.00s CPU     25.37s WALL (      60 calls)
     forces       :     72.42s CPU     73.76s WALL (      61 calls)

     Called by init_run:
     wfcinit      :      2.42s CPU      4.55s WALL (       1 calls)
                                        4.55s GPU  (       1 calls)
     potinit      :      0.30s CPU      0.45s WALL (       1 calls)
     hinit0       :      0.17s CPU      0.24s WALL (       1 calls)

     Called by electrons:
     c_bands      :   3268.71s CPU   3309.56s WALL (     784 calls)
     sum_band     :    403.42s CPU    418.93s WALL (     784 calls)
     v_of_rho     :     18.12s CPU     20.72s WALL (     829 calls)
     newd         :      6.60s CPU     11.38s WALL (     829 calls)
                                        8.09s GPU  (     769 calls)
     mix_rho      :     20.56s CPU     22.24s WALL (     784 calls)

     Called by c_bands:
     init_us_2    :     67.73s CPU     68.51s WALL (    9780 calls)
     init_us_2:gp :     67.24s CPU     68.05s WALL (    9780 calls)
     cegterg      :   3007.38s CPU   3035.53s WALL (    4705 calls)

     Called by *egterg:
     cdiaghg      :    288.82s CPU    294.56s WALL (   22779 calls)
                                      293.61s GPU  (   22779 calls)
     h_psi        :   1759.37s CPU   1781.04s WALL (   23242 calls)
                                     1772.56s GPU  (   23242 calls)
     s_psi        :     15.68s CPU    382.15s WALL (   23242 calls)
                                      379.85s GPU  (   23242 calls)
     g_psi        :      0.19s CPU     15.00s WALL (   18531 calls)
                                        1.26s GPU  (   18531 calls)

     Called by h_psi:
     h_psi:calbec :    396.80s CPU    400.29s WALL (   23242 calls)
                                      388.04s GPU  (   23242 calls)
     vloc_psi     :    912.85s CPU    937.42s WALL (   23242 calls)
                                      928.53s GPU  (   23242 calls)
     add_vuspsi   :     15.87s CPU    422.13s WALL (   23242 calls)
                                      417.42s GPU  (   23242 calls)

     General routines
     calbec       :    590.37s CPU    593.67s WALL (   29410 calls)
     fft          :     17.84s CPU     21.74s WALL (    9866 calls)
                                        9.40s GPU  (    7303 calls)
     ffts         :      3.25s CPU      3.51s WALL (     784 calls)
     fftw         :    995.72s CPU   1091.54s WALL (  218952 calls)
                                     1005.27s GPU  (  218952 calls)
 
     Parallel routines
 
     PWSCF        :      1h 3m CPU      1h 5m WALL

 
   This run was terminated on:  20:43:46   9Jul2022            

=------------------------------------------------------------------------------=
   JOB DONE.
=------------------------------------------------------------------------------=
