

 Parallel Execution: Process Information
 ==============================================================================
 Rank   Node Name                              NodeID   MyNodeRank  NodeMaster
    0   adf1                                      0          0          0
    1   adf1                                      0          1         -1
    2   adf1                                      0          2         -1
    3   adf1                                      0          3         -1
    4   adf1                                      0          4         -1
    5   adf1                                      0          5         -1
    6   adf1                                      1          0          1
    7   adf1                                      1          1         -1
    8   adf1                                      1          2         -1
    9   adf1                                      1          3         -1
   10   adf1                                      1          4         -1
   11   adf1                                      1          5         -1
 ==============================================================================


May use up to 11697MB of RAM as shared memory on node 0
May use up to 11718MB of RAM as shared memory on node 1

 *******************************************************************************
 *                                                                             *
 *  --------------------------------                                           *
 *   Amsterdam Modeling Suite (AMS)              2022.103                      *
 *  --------------------------------                                           *
 *                                               r104852 2022-06-15            *
 *                                                                             *
 *                                                                             *
 *                              =================                              *
 *                              |               |                              *
 *                              |     A M S     |                              *
 *                              |               |                              *
 *                              =================                              *
 *                                                                             *
 *                                                                             *
 *   Online information and documentation:  https://www.scm.com/support/       *
 *   E-mail:  support@scm.com   info@scm.com                                   *
 *                                                                             *
 *   Scientific publications using AMS results must be properly referenced     *
 *   See the User Manuals (or the web site) for recommended citations          *
 *   The terms and conditions of the End User License Agreement apply to       *
 *   the use of AMS, https://www.scm.com/license-terms/                        *
 *                                                                             *
 **********************  x86_64_linux_intel / intelmpi  ************************
 
 Licensed to: Dr. Miroslav Ilias / Matej Bel University, Department Chemistry, Fac. Natural Sciences / Banska Bystrica / SLOVAKIA 2022-06-16 16:10:08
 SCM User ID: u17848
  
 AMS 2022.103  RunTime: Jul01-2022 20:36:14  ShM Nodes: 2  Procs: 12

 AMS jobname: ams
 AMS jobid  : 379578104

 Start   directory: /home/milias/Work/projects/open-collection/theoretical_chemistry/software_runs/ams/servers/adf1_umb_sk/test_phonons/tmp.milias.10350.0.noindex/
 Results directory: /home/milias/Work/projects/open-collection/theoretical_chemistry/software_runs/ams/servers/adf1_umb_sk/test_phonons/dftbphonon.results/
 Scratch directory: /tmp/amstmp_ams_kid0.379578104/


 Communication costs MPI_COMM_WORLD:      2.765 usec per message,   0.0277 usec per 8-byte item
 Communication costs for intra-node:      1.581 usec per message,   0.0132 usec per 8-byte item

 RNG seed: 533074250 -333048411 -1239577302 1156162774 1164246552 143415578 -118025652 -1055497159
       ****************************
       * SINGLE POINT CALCULATION *
       ****************************
 
--------
Geometry
--------
Formula: H2O12Si6
Atoms
  Index Symbol   x (angstrom)   y (angstrom)   z (angstrom)
      1      O    -0.95726867     1.19274910    -4.82146299
      2      O     0.95466684     0.53249964    -1.21861098
      3      O    -1.88780117    -1.72971406    -3.01822302
      4      O    -0.95625206    -1.18857970    -0.57892299
      5      O     0.94572574    -0.53446889    -4.15884255
      6      O     3.00589576     1.71648045    -2.37436776
      7     Si     0.00000000     0.00000000     0.00000000
      8     Si     1.49862015     1.95763460    -1.79749266
      9     Si    -3.39639772    -1.96287518    -3.59498761
     10      O    -0.95215323     1.19498268   -10.20717295
     11      O     0.95978228     0.53473322    -6.60432093
     12      O    -1.88268573    -1.72748048    -8.40393297
     13      O    -0.95113662    -1.18634612    -5.96463295
     14      O     0.95084118    -0.53223532    -9.54455250
     15      O     3.01101120     1.71871403    -7.76007772
     16     Si     0.00511544     0.00223358    -5.38570996
     17     Si     1.50373559     1.95986817    -7.18320262
     18     Si    -3.39128227    -1.96064160    -8.98069757
     19      H    -0.95348183     0.30475790    -9.84787074
     20      H     0.84282195    -0.58438368   -10.49702948
 
Lattice vectors (angstrom)
      1     4.89282791     0.00000000     0.00000000
      2     2.44592295     4.23882983     0.00000000
 
Unit cell area (angstrom^2)        20.73986
 
Total System Charge             0.00000
Bonding info available!
 
 
-------------------------
DFTB Engine configuration
-------------------------
DFTB Resources dir                     /home/milias/Work/software/ams/intel_mpi/ams2022.103/atomicdata/DFTB/GFN1-xTB
 
SCC convergence enabled.
Maximum SCC cycles                       500
SCC charge convergence                   0.000000010000
SCC charge mixing                        0.150000000000
DIIS max dimension                       20
DIIS maximum coeff.                     10.000000000000
Adaptive SCC charge mixing             T
Adaptive SCC mixing strategy              3
Spin polarization                      F
Orbital-dependent SCC                  T
Orbital fill strategy                  Fermi
Fermi temperature (kelvin)                     300.0000
  ... kT (Hartree)                               0.0010
Use of symmetry                        T
Radial function extrapolation method   Auto

 Settings for Grimme D3 dispersion correction

      damping                        BJ
      s6                          1.000
      s8                          2.400
      a1                          0.630
      a2                          5.000

 Other (technical) parameters

      alpha                      14.000
      version                         4
 

---------------------
Periodic DFTB options
---------------------
 kpoints config
 grid method with params
Assume insulator                        F
Ewald tolerance                    1.00E-10
Ewald range factor                  2.00

 BZStruct config
 ---------------
 Enabled        T
 Automatic      T
 CalcFatBands   T
 useSymmetry    T
 deltaK          0.100000000000000     
 
 Nr. of cells for integrals          81
Estimated upper bound for memory consumption:    1.084 MiB

Number of basis functions:          106
Number of k-points:                  13
    Cycle:   1, MaxQDiff:   1.525502094011, PartialEnergy:     -68.7530822192, Used mix:   0.150 nvec:    0
    Cycle:   2, MaxQDiff:   1.377461624169, PartialEnergy:     -69.1545076822, Used mix:   0.150 nvec:    1
    Cycle:   3, MaxQDiff:   1.080651498777, PartialEnergy:     -70.0202629447, Used mix:   0.150 nvec:    1
    Cycle:   4, MaxQDiff:   1.358577606779, PartialEnergy:     -68.9491780182, Used mix:   0.150 nvec:    2
    Cycle:   5, MaxQDiff:   0.667202669814, PartialEnergy:     -70.7401704741, Used mix:   0.150 nvec:    2
    Cycle:   6, MaxQDiff:   0.317494651037, PartialEnergy:     -70.5353980575, Used mix:   0.150 nvec:    3
    Cycle:   7, MaxQDiff:   0.202826934866, PartialEnergy:     -70.5945276441, Used mix:   0.150 nvec:    4
    Cycle:   8, MaxQDiff:   0.067648410835, PartialEnergy:     -70.7269107499, Used mix:   0.150 nvec:    5
    Cycle:   9, MaxQDiff:   0.028553537739, PartialEnergy:     -70.7411896607, Used mix:   0.150 nvec:    6
    Cycle:  10, MaxQDiff:   0.022934818046, PartialEnergy:     -70.7418921630, Used mix:   0.150 nvec:    7
    Cycle:  11, MaxQDiff:   0.016535207133, PartialEnergy:     -70.7425553480, Used mix:   0.150 nvec:    8
    Cycle:  12, MaxQDiff:   0.004047074695, PartialEnergy:     -70.7433427608, Used mix:   0.150 nvec:    9
    Cycle:  13, MaxQDiff:   0.000677840536, PartialEnergy:     -70.7433896720, Used mix:   0.150 nvec:   10
    Cycle:  14, MaxQDiff:   0.000815841466, PartialEnergy:     -70.7433881393, Used mix:   0.150 nvec:   11
    Cycle:  15, MaxQDiff:   0.000179057696, PartialEnergy:     -70.7433899819, Used mix:   0.150 nvec:   12
    Cycle:  16, MaxQDiff:   0.000083956419, PartialEnergy:     -70.7433900257, Used mix:   0.150 nvec:   13
    Cycle:  17, MaxQDiff:   0.000040360593, PartialEnergy:     -70.7433900358, Used mix:   0.150 nvec:   14
    Cycle:  18, MaxQDiff:   0.000035858399, PartialEnergy:     -70.7433900374, Used mix:   0.150 nvec:   15
    Cycle:  19, MaxQDiff:   0.000025156389, PartialEnergy:     -70.7433900382, Used mix:   0.150 nvec:   16
    Cycle:  20, MaxQDiff:   0.000004147866, PartialEnergy:     -70.7433900400, Used mix:   0.150 nvec:   17
    Cycle:  21, MaxQDiff:   0.000006278776, PartialEnergy:     -70.7433900399, Used mix:   0.150 nvec:   18
    Cycle:  22, MaxQDiff:   0.000001577552, PartialEnergy:     -70.7433900400, Used mix:   0.150 nvec:   19
    Cycle:  23, MaxQDiff:   0.000000231568, PartialEnergy:     -70.7433900400, Used mix:   0.150 nvec:   20
    Cycle:  24, MaxQDiff:   0.000000636501, PartialEnergy:     -70.7433900400, Used mix:   0.150 nvec:   20
    Cycle:  25, MaxQDiff:   0.000000027322, PartialEnergy:     -70.7433900400, Used mix:   0.150 nvec:   17
    Cycle:  26, MaxQDiff:   0.000000014364, PartialEnergy:     -70.7433900400, Used mix:   0.150 nvec:   17
    Cycle:  27, MaxQDiff:   0.000000004225, PartialEnergy:     -70.7433900400, Used mix:   0.150 nvec:    6
 Evaluation was successful

================================================================
KPath (generation of high symmetry k-path in the Brillouin zone)
================================================================

Lattice
a1 :    9.2461    0.0000
a2 :    4.6221    8.0102

Reciprocal lattice
b1 :    0.6795   -0.3921
b2 :    0.0000    0.7844

Cell parameters (angles in degrees)
a,b   :    9.2461    9.2481
alpha :   60.0139

Bravais lattice type : Hexagonal (HEXP, h)

K-Path: G-M-K-G

K-points in fractional coordinates
G     :    0.0000     0.0000 
K     :   -0.3334     0.3335 
M     :   -0.5000     0.0001 

 -------------
 Phonon config
 -------------
 interpol                  100
 step size (bohr)   7.558904498503081E-002
 super cell                  2           0           0           0           2
           0           0           0           1
 useSymmetry       T
 minTempKelvin      0.000000000000000E+000
 maxTempKelvin       1000.00000000000     
 numTemperatures          1000
 numDosEnergies           1000
 nSides                      2
 nParallel                  -1
 automaticBZPath   T


P H O N O N   P R E P

            Finite displacment (bohr)     :                0.076
            Finite displacment (Angstrom) :                0.040
                  Super cell transformation
                                            2    0
                                            0    2
    Number of primitive cells in super cell     4
              Atomic coordinates (Angstrom)
                                             Index     Symbol       Mass                  x                     y                     z   
                                                 1 O              15.995         -0.957268672          1.192749101         -4.821462994
                                                 2 O              15.995          0.954666837          0.532499640         -1.218610976
                                                 3 O              15.995         -1.887801174         -1.729714057         -3.018223018
                                                 4 O              15.995         -0.956252058         -1.188579700         -0.578922993
                                                 5 O              15.995          0.945725740         -0.534468894         -4.158842545
                                                 6 O              15.995          3.005895757          1.716480448         -2.374367763
                                                 7 Si             27.977          0.000000000          0.000000000          0.000000000
                                                 8 Si             27.977          1.498620147          1.957634597         -1.797492661
                                                 9 Si             27.977         -3.396397715         -1.962875177         -3.594987614
                                                10 O              15.995         -0.952153231          1.194982679        -10.207172951
                                                11 O              15.995          0.959782278          0.534733218         -6.604320933
                                                12 O              15.995         -1.882685733         -1.727480479         -8.403932975
                                                13 O              15.995         -0.951136617         -1.186346123         -5.964632950
                                                14 O              15.995          0.950841181         -0.532235316         -9.544552502
                                                15 O              15.995          3.011011198          1.718714026         -7.760077720
                                                16 Si             27.977          0.005115441          0.002233578         -5.385709957
                                                17 Si             27.977          1.503735588          1.959868174         -7.183202618
                                                18 Si             27.977         -3.391282274         -1.960641600         -8.980697571
                                                19 H               1.008         -0.953481833          0.304757899         -9.847870743
                                                20 H               1.008          0.842821954         -0.584383676        -10.497029481
                                                21 O              15.995         -3.403191622         -3.046080729         -4.821462994
                                                22 O              15.995         -1.491256113         -3.706330189         -1.218610976
                                                23 O              15.995         -4.333724124         -5.968543886         -3.018223018
                                                24 O              15.995         -3.402175008         -5.427409530         -0.578922993
                                                25 O              15.995         -1.500197209         -4.773298723         -4.158842545
                                                26 O              15.995          0.559972807         -2.522349381         -2.374367763
                                                27 Si             27.977         -2.445922950         -4.238829830          0.000000000
                                                28 Si             27.977         -0.947302803         -2.281195233         -1.797492661
                                                29 Si             27.977         -5.842320665         -6.201705007         -3.594987614
                                                30 O              15.995         -3.398076181         -3.043847151        -10.207172951
                                                31 O              15.995         -1.486140672         -3.704096612         -6.604320933
                                                32 O              15.995         -4.328608683         -5.966310309         -8.403932975
                                                33 O              15.995         -3.397059567         -5.425175952         -5.964632950
                                                34 O              15.995         -1.495081768         -4.771065146         -9.544552502
                                                35 O              15.995          0.565088248         -2.520115804         -7.760077720
                                                36 Si             27.977         -2.440807509         -4.236596252         -5.385709957
                                                37 Si             27.977         -0.942187362         -2.278961655         -7.183202618
                                                38 Si             27.977         -5.837205224         -6.199471429         -8.980697571
                                                39 H               1.008         -3.399404783         -3.934071931         -9.847870743
                                                40 H               1.008         -1.603100996         -4.823213505        -10.497029481
                                                41 O              15.995         -5.850096584          1.192749101         -4.821462994
                                                42 O              15.995         -3.938161075          0.532499640         -1.218610976
                                                43 O              15.995         -6.780629086         -1.729714057         -3.018223018
                                                44 O              15.995         -5.849079970         -1.188579700         -0.578922993
                                                45 O              15.995         -3.947102171         -0.534468894         -4.158842545
                                                46 O              15.995         -1.886932155          1.716480448         -2.374367763
                                                47 Si             27.977         -4.892827912          0.000000000          0.000000000
                                                48 Si             27.977         -3.394207765          1.957634597         -1.797492661
                                                49 Si             27.977         -8.289225627         -1.962875177         -3.594987614
                                                50 O              15.995         -5.844981143          1.194982679        -10.207172951
                                                51 O              15.995         -3.933045633          0.534733218         -6.604320933
                                                52 O              15.995         -6.775513645         -1.727480479         -8.403932975
                                                53 O              15.995         -5.843964529         -1.186346123         -5.964632950
                                                54 O              15.995         -3.941986730         -0.532235316         -9.544552502
                                                55 O              15.995         -1.881816714          1.718714026         -7.760077720
                                                56 Si             27.977         -4.887712471          0.002233578         -5.385709957
                                                57 Si             27.977         -3.389092324          1.959868174         -7.183202618
                                                58 Si             27.977         -8.284110186         -1.960641600         -8.980697571
                                                59 H               1.008         -5.846309745          0.304757899         -9.847870743
                                                60 H               1.008         -4.050005958         -0.584383676        -10.497029481
                                                61 O              15.995         -8.296019534         -3.046080729         -4.821462994
                                                62 O              15.995         -6.384084024         -3.706330189         -1.218610976
                                                63 O              15.995         -9.226552036         -5.968543886         -3.018223018
                                                64 O              15.995         -8.295002920         -5.427409530         -0.578922993
                                                65 O              15.995         -6.393025121         -4.773298723         -4.158842545
                                                66 O              15.995         -4.332855105         -2.522349381         -2.374367763
                                                67 Si             27.977         -7.338750862         -4.238829830          0.000000000
                                                68 Si             27.977         -5.840130715         -2.281195233         -1.797492661
                                                69 Si             27.977        -10.735148577         -6.201705007         -3.594987614
                                                70 O              15.995         -8.290904093         -3.043847151        -10.207172951
                                                71 O              15.995         -6.378968583         -3.704096612         -6.604320933
                                                72 O              15.995         -9.221436595         -5.966310309         -8.403932975
                                                73 O              15.995         -8.289887479         -5.425175952         -5.964632950
                                                74 O              15.995         -6.387909680         -4.771065146         -9.544552502
                                                75 O              15.995         -4.327739664         -2.520115804         -7.760077720
                                                76 Si             27.977         -7.333635421         -4.236596252         -5.385709957
                                                77 Si             27.977         -5.835015274         -2.278961655         -7.183202618
                                                78 Si             27.977        -10.730033136         -6.199471429         -8.980697571
                                                79 H               1.008         -8.292232695         -3.934071931         -9.847870743
                                                80 H               1.008         -6.495928908         -4.823213505        -10.497029481
                 Lattice Vectors (Angstrom)
                                                         x                     y                     z   
                                                 9.785655824          0.000000000          0.000000000
                                                 4.891845900          8.477659659          0.000000000
            Finite displacements (Angstrom)
                                             Index     Symbol       Mass                  x                     y                     z   
                                                 1 O              15.995          0.040000000          0.000000000          0.000000000
                                                 1 O              15.995          0.019991622          0.034645852          0.000000000
                                                 1 O              15.995          0.000000000          0.000000000          0.040000000
                                                 2 O              15.995          0.040000000          0.000000000          0.000000000
                                                 2 O              15.995          0.019991622          0.034645852          0.000000000
                                                 2 O              15.995          0.000000000          0.000000000          0.040000000
                                                 3 O              15.995          0.040000000          0.000000000          0.000000000
                                                 3 O              15.995          0.019991622          0.034645852          0.000000000
                                                 3 O              15.995          0.000000000          0.000000000          0.040000000
                                                 4 O              15.995          0.040000000          0.000000000          0.000000000
                                                 4 O              15.995          0.019991622          0.034645852          0.000000000
                                                 4 O              15.995          0.000000000          0.000000000          0.040000000
                                                 5 O              15.995          0.040000000          0.000000000          0.000000000
                                                 5 O              15.995          0.019991622          0.034645852          0.000000000
                                                 5 O              15.995          0.000000000          0.000000000          0.040000000
                                                 6 O              15.995          0.040000000          0.000000000          0.000000000
                                                 6 O              15.995          0.019991622          0.034645852          0.000000000
                                                 6 O              15.995          0.000000000          0.000000000          0.040000000
                                                 7 Si             27.977          0.040000000          0.000000000          0.000000000
                                                 7 Si             27.977          0.019991622          0.034645852          0.000000000
                                                 7 Si             27.977          0.000000000          0.000000000          0.040000000
                                                 8 Si             27.977          0.040000000          0.000000000          0.000000000
                                                 8 Si             27.977          0.019991622          0.034645852          0.000000000
                                                 8 Si             27.977          0.000000000          0.000000000          0.040000000
                                                 9 Si             27.977          0.040000000          0.000000000          0.000000000
                                                 9 Si             27.977          0.019991622          0.034645852          0.000000000
                                                 9 Si             27.977          0.000000000          0.000000000          0.040000000
                                                10 O              15.995          0.040000000          0.000000000          0.000000000
                                                10 O              15.995          0.019991622          0.034645852          0.000000000
                                                10 O              15.995          0.000000000          0.000000000          0.040000000
                                                11 O              15.995          0.040000000          0.000000000          0.000000000
                                                11 O              15.995          0.019991622          0.034645852          0.000000000
                                                11 O              15.995          0.000000000          0.000000000          0.040000000
                                                12 O              15.995          0.040000000          0.000000000          0.000000000
                                                12 O              15.995          0.019991622          0.034645852          0.000000000
                                                12 O              15.995          0.000000000          0.000000000          0.040000000
                                                13 O              15.995          0.040000000          0.000000000          0.000000000
                                                13 O              15.995          0.019991622          0.034645852          0.000000000
                                                13 O              15.995          0.000000000          0.000000000          0.040000000
                                                14 O              15.995          0.040000000          0.000000000          0.000000000
                                                14 O              15.995          0.019991622          0.034645852          0.000000000
                                                14 O              15.995          0.000000000          0.000000000          0.040000000
                                                15 O              15.995          0.040000000          0.000000000          0.000000000
                                                15 O              15.995          0.019991622          0.034645852          0.000000000
                                                15 O              15.995          0.000000000          0.000000000          0.040000000
                                                16 Si             27.977          0.040000000          0.000000000          0.000000000
                                                16 Si             27.977          0.019991622          0.034645852          0.000000000
                                                16 Si             27.977          0.000000000          0.000000000          0.040000000
                                                17 Si             27.977          0.040000000          0.000000000          0.000000000
                                                17 Si             27.977          0.019991622          0.034645852          0.000000000
                                                17 Si             27.977          0.000000000          0.000000000          0.040000000
                                                18 Si             27.977          0.040000000          0.000000000          0.000000000
                                                18 Si             27.977          0.019991622          0.034645852          0.000000000
                                                18 Si             27.977          0.000000000          0.000000000          0.040000000
                                                19 H               1.008          0.040000000          0.000000000          0.000000000
                                                19 H               1.008          0.019991622          0.034645852          0.000000000
                                                19 H               1.008          0.000000000          0.000000000          0.040000000
                                                20 H               1.008          0.040000000          0.000000000          0.000000000
                                                20 H               1.008          0.019991622          0.034645852          0.000000000
                                                20 H               1.008          0.000000000          0.000000000          0.040000000
 
 WARNING: Phonon calculation not in a minimum
            atom number          4
       displacement nr.         10
               gradient      0.003      0.002     -0.018
           displacement      0.076      0.000      0.000
   gradient along displ     -0.003
 WARNING: Phonon calculation not in a minimum
            atom number          4
       displacement nr.         12
               gradient      0.015      0.024     -0.001
           displacement      0.000      0.000      0.076
   gradient along displ     -0.001
 WARNING: Phonon calculation not in a minimum
            atom number          7
       displacement nr.         21
               gradient     -0.001     -0.012     -0.012
           displacement      0.000      0.000      0.076
   gradient along displ     -0.012
 WARNING: Phonon calculation not in a minimum
            atom number          8
       displacement nr.         24
               gradient     -0.005      0.011      0.010
           displacement      0.000      0.000      0.076
   gradient along displ     -0.010
 WARNING: Phonon calculation not in a minimum
            atom number         10
       displacement nr.         28
               gradient      0.002      0.014      0.019
           displacement      0.076      0.000      0.000
   gradient along displ     -0.002
 WARNING: Phonon calculation not in a minimum
            atom number         10
       displacement nr.         30
               gradient      0.005      0.016      0.002
           displacement      0.000      0.000      0.076
   gradient along displ     -0.002
 WARNING: Phonon calculation not in a minimum
            atom number         18
       displacement nr.         54
               gradient     -0.007     -0.005     -0.003
           displacement      0.000      0.000      0.076
   gradient along displ     -0.003
 WARNING: Phonon calculation not in a minimum
            atom number         20
       displacement nr.         59
               gradient      0.002     -0.012     -0.008
           displacement      0.038      0.065      0.000
   gradient along displ     -0.009

================================================================
KPath (generation of high symmetry k-path in the Brillouin zone)
================================================================

Lattice
a1 :    9.2461    0.0000
a2 :    4.6221    8.0102

Reciprocal lattice
b1 :    0.6795   -0.3921
b2 :    0.0000    0.7844

Cell parameters (angles in degrees)
a,b   :    9.2461    9.2481
alpha :   60.0139

Bravais lattice type : Hexagonal (HEXP, h)

K-Path: G-M-K-G

K-points in fractional coordinates
G     :    0.0000     0.0000 
K     :   -0.3334     0.3335 
M     :   -0.5000     0.0001 


              Phonon DOS

   ------------------------
     freq(a.u.)         DOS
   ------------------------
     0.0000E+00  0.0000E+00
     1.6678E-05  2.5784E-02
     3.3356E-05  2.4561E-02
     5.0034E-05  2.4356E-02
     6.6713E-05  2.9197E-02
     8.3391E-05  3.1862E-02
     1.0007E-04  3.2909E-02
     1.1675E-04  5.2709E-02
     1.3343E-04  6.5576E-02
     1.5010E-04  1.4050E-01
     1.6678E-04  1.9318E-01
     1.8346E-04  1.7301E-01
     2.0014E-04  1.5730E-01
     2.1682E-04  1.4838E-01
     2.3349E-04  1.3974E-01
     2.5017E-04  8.1903E-02
     2.6685E-04  9.9346E-02
     2.8353E-04  2.1014E-01
     3.0021E-04  1.6506E-01
     3.1689E-04  2.5112E-01
     3.3356E-04  1.9429E-01
     3.5024E-04  2.7704E-01
     3.6692E-04  2.7120E-01
     3.8360E-04  3.2205E-01
     4.0028E-04  2.3872E-01
     4.1695E-04  4.2381E-01
     4.3363E-04  3.3668E-01
     4.5031E-04  1.1163E-01
     4.6699E-04  2.0676E-02
     4.8367E-04  7.6030E-02
     5.0034E-04  1.6706E-01
     5.1702E-04  2.2271E-01
     5.3370E-04  1.6541E-01
     5.5038E-04  1.4049E-01
     5.6706E-04  1.0480E-01
     5.8374E-04  9.2164E-02
     6.0041E-04  1.9038E-01
     6.1709E-04  2.2282E-01
     6.3377E-04  2.4475E-01
     6.5045E-04  1.7241E-01
     6.6713E-04  1.6914E-01
     6.8380E-04  1.7466E-01
     7.0048E-04  2.2632E-01
     7.1716E-04  1.7001E-01
     7.3384E-04  1.2954E-01
     7.5052E-04  1.3607E-01
     7.6720E-04  1.7979E-01
     7.8387E-04  2.7727E-01
     8.0055E-04  2.8425E-01
     8.1723E-04  2.1668E-01
     8.3391E-04  1.6626E-01
     8.5059E-04  3.0191E-01
     8.6726E-04  3.4700E-01
     8.8394E-04  4.3052E-01
     9.0062E-04  2.1680E-01
     9.1730E-04  1.7092E-01
     9.3398E-04  1.6674E-01
     9.5066E-04  3.1771E-01
     9.6733E-04  2.3576E-01
     9.8401E-04  1.9643E-01
     1.0007E-03  2.1177E-01
     1.0174E-03  3.1380E-01
     1.0340E-03  2.3812E-01
     1.0507E-03  3.1602E-01
     1.0674E-03  1.9422E-01
     1.0841E-03  2.2036E-01
     1.1008E-03  3.4035E-01
     1.1174E-03  3.2816E-01
     1.1341E-03  1.8804E-01
     1.1508E-03  2.9304E-01
     1.1675E-03  3.6402E-01
     1.1841E-03  2.7447E-01
     1.2008E-03  1.9214E-01
     1.2175E-03  2.6162E-01
     1.2342E-03  2.2601E-01
     1.2509E-03  2.2490E-01
     1.2675E-03  1.5295E-01
     1.2842E-03  3.0829E-01
     1.3009E-03  3.3217E-01
     1.3176E-03  3.7018E-01
     1.3343E-03  2.1324E-01
     1.3509E-03  1.6135E-01
     1.3676E-03  2.7309E-01
     1.3843E-03  3.5634E-01
     1.4010E-03  3.4653E-01
     1.4176E-03  3.6405E-01
     1.4343E-03  3.3926E-01
     1.4510E-03  2.0833E-01
     1.4677E-03  2.2223E-01
     1.4844E-03  2.8559E-01
     1.5010E-03  2.8805E-01
     1.5177E-03  4.4152E-01
     1.5344E-03  3.3395E-01
     1.5511E-03  3.1966E-01
     1.5677E-03  3.8688E-01
     1.5844E-03  3.3825E-01
     1.6011E-03  2.5257E-01
     1.6178E-03  2.4524E-01
     1.6345E-03  3.8712E-01
     1.6511E-03  3.0296E-01
     1.6678E-03  2.8073E-01
     1.6845E-03  4.2537E-01
     1.7012E-03  3.2153E-01
     1.7179E-03  2.8200E-01
     1.7345E-03  4.5640E-01
     1.7512E-03  2.5133E-01
     1.7679E-03  3.5935E-01
     1.7846E-03  5.9777E-01
     1.8012E-03  6.8016E-01
     1.8179E-03  5.2516E-01
     1.8346E-03  3.3106E-01
     1.8513E-03  1.5895E-01
     1.8680E-03  1.4469E-01
     1.8846E-03  1.0772E-01
     1.9013E-03  7.3682E-02
     1.9180E-03  6.2889E-02
     1.9347E-03  5.7258E-02
     1.9513E-03  6.0040E-02
     1.9680E-03  1.8994E-02
     1.9847E-03  0.0000E+00
     2.0014E-03  0.0000E+00
     2.0181E-03  0.0000E+00
     2.0347E-03  0.0000E+00
     2.0514E-03  2.9575E-02
     2.0681E-03  9.3933E-02
     2.0848E-03  1.6415E-01
     2.1014E-03  1.4634E-01
     2.1181E-03  1.4185E-01
     2.1348E-03  1.6808E-01
     2.1515E-03  1.3041E-01
     2.1682E-03  1.2114E-01
     2.1848E-03  1.1635E-01
     2.2015E-03  1.2293E-01
     2.2182E-03  5.8349E-02
     2.2349E-03  6.3545E-02
     2.2516E-03  9.1989E-02
     2.2682E-03  8.4464E-02
     2.2849E-03  1.2929E-01
     2.3016E-03  1.5076E-01
     2.3183E-03  1.4812E-01
     2.3349E-03  1.2502E-01
     2.3516E-03  1.1910E-01
     2.3683E-03  1.1968E-01
     2.3850E-03  1.3595E-01
     2.4017E-03  1.3239E-01
     2.4183E-03  7.4618E-02
     2.4350E-03  5.2941E-02
     2.4517E-03  4.3962E-02
     2.4684E-03  3.7417E-02
     2.4850E-03  3.2779E-02
     2.5017E-03  2.9675E-02
     2.5184E-03  2.8058E-02
     2.5351E-03  2.7334E-02
     2.5518E-03  2.7255E-02
     2.5684E-03  5.2160E-02
     2.5851E-03  2.4774E-01
     2.6018E-03  1.8211E-01
     2.6185E-03  2.1579E-01
     2.6351E-03  1.7401E-01
     2.6518E-03  1.1337E-01
     2.6685E-03  1.0171E-01
     2.6852E-03  1.4807E-01
     2.7019E-03  1.4532E-01
     2.7185E-03  9.2593E-02
     2.7352E-03  6.9140E-02
     2.7519E-03  9.4148E-02
     2.7686E-03  9.0974E-02
     2.7853E-03  9.4551E-02
     2.8019E-03  1.0043E-01
     2.8186E-03  1.1016E-01
     2.8353E-03  1.2982E-01
     2.8520E-03  1.5936E-01
     2.8686E-03  8.6531E-02
     2.8853E-03  1.1764E-01
     2.9020E-03  1.2431E-01
     2.9187E-03  1.7993E-01
     2.9354E-03  9.9540E-02
     2.9520E-03  8.2476E-02
     2.9687E-03  1.0657E-01
     2.9854E-03  1.1018E-01
     3.0021E-03  8.5479E-02
     3.0187E-03  1.3686E-01
     3.0354E-03  1.8432E-01
     3.0521E-03  1.5305E-01
     3.0688E-03  1.5358E-01
     3.0855E-03  1.6590E-01
     3.1021E-03  2.6099E-01
     3.1188E-03  3.1894E-01
     3.1355E-03  2.3459E-01
     3.1522E-03  3.8237E-01
     3.1689E-03  2.6452E-01
     3.1855E-03  1.4683E-01
     3.2022E-03  1.6280E-01
     3.2189E-03  1.8407E-01
     3.2356E-03  4.8100E-01
     3.2522E-03  3.5902E-01
     3.2689E-03  2.1507E-01
     3.2856E-03  6.0712E-01
     3.3023E-03  4.2490E-01
     3.3190E-03  4.4323E-01
     3.3356E-03  4.4451E-01
     3.3523E-03  2.6511E-01
     3.3690E-03  5.4523E-01
     3.3857E-03  2.0443E-01
     3.4023E-03  0.0000E+00
     3.4190E-03  0.0000E+00
     3.4357E-03  0.0000E+00
     3.4524E-03  0.0000E+00
     3.4691E-03  0.0000E+00
     3.4857E-03  0.0000E+00
     3.5024E-03  0.0000E+00
     3.5191E-03  0.0000E+00
     3.5358E-03  0.0000E+00
     3.5524E-03  0.0000E+00
     3.5691E-03  0.0000E+00
     3.5858E-03  0.0000E+00
     3.6025E-03  0.0000E+00
     3.6192E-03  0.0000E+00
     3.6358E-03  0.0000E+00
     3.6525E-03  0.0000E+00
     3.6692E-03  0.0000E+00
     3.6859E-03  0.0000E+00
     3.7026E-03  0.0000E+00
     3.7192E-03  0.0000E+00
     3.7359E-03  0.0000E+00
     3.7526E-03  0.0000E+00
     3.7693E-03  0.0000E+00
     3.7859E-03  0.0000E+00
     3.8026E-03  0.0000E+00
     3.8193E-03  0.0000E+00
     3.8360E-03  1.0609E-01
     3.8527E-03  1.9075E-01
     3.8693E-03  2.4624E-01
     3.8860E-03  2.1209E-01
     3.9027E-03  1.4924E-01
     3.9194E-03  9.5605E-02
     3.9360E-03  0.0000E+00
     3.9527E-03  1.2044E-03
     3.9694E-03  7.4605E-02
     3.9861E-03  1.3454E-01
     4.0028E-03  9.4047E-02
     4.0194E-03  8.3361E-02
     4.0361E-03  8.0253E-02
     4.0528E-03  8.2459E-02
     4.0695E-03  8.9666E-02
     4.0862E-03  1.0994E-01
     4.1028E-03  1.6928E-01
     4.1195E-03  8.0640E-02
     4.1362E-03  0.0000E+00
     4.1529E-03  0.0000E+00
     4.1695E-03  0.0000E+00
     4.1862E-03  0.0000E+00
     4.2029E-03  0.0000E+00
     4.2196E-03  0.0000E+00
     4.2363E-03  0.0000E+00
     4.2529E-03  0.0000E+00
     4.2696E-03  0.0000E+00
     4.2863E-03  1.2371E-01
     4.3030E-03  1.7598E-01
     4.3196E-03  4.7154E-01
     4.3363E-03  3.5375E-01
     4.3530E-03  4.3291E-01
     4.3697E-03  4.8049E-01
     4.3864E-03  7.7989E-01
     4.4030E-03  5.7035E-01
     4.4197E-03  4.0665E-01
     4.4364E-03  2.8474E-01
     4.4531E-03  5.9516E-02
     4.4697E-03  2.9831E-02
     4.4864E-03  2.9726E-02
     4.5031E-03  2.9994E-02
     4.5198E-03  3.1161E-02
     4.5365E-03  3.3529E-02
     4.5531E-03  3.8427E-02
     4.5698E-03  4.6113E-02
     4.5865E-03  1.1083E-01
     4.6032E-03  2.1714E-01
     4.6199E-03  1.0608E-01
     4.6365E-03  1.0438E-01
     4.6532E-03  1.1441E-01
     4.6699E-03  1.7723E-01
     4.6866E-03  1.1174E-01
     4.7032E-03  1.8499E-01
     4.7199E-03  3.2684E-01
     4.7366E-03  1.7833E-01
     4.7533E-03  2.1046E-01
     4.7700E-03  6.2768E-01
     4.7866E-03  6.3652E-01
     4.8033E-03  4.7203E-01
     4.8200E-03  3.7702E-01
     4.8367E-03  4.3035E-01
     4.8533E-03  3.7150E-01
     4.8700E-03  3.9823E-01
     4.8867E-03  1.7435E-01
     4.9034E-03  7.2291E-02
     4.9201E-03  6.1235E-02
     4.9367E-03  4.9059E-02
     4.9534E-03  1.9155E-02
     4.9701E-03  1.6839E-02
     4.9868E-03  1.6025E-02
     5.0034E-03  1.6303E-02
     5.0201E-03  1.6131E-02
     5.0368E-03  1.5727E-02
     5.0535E-03  8.7950E-03
     5.0702E-03  0.0000E+00
     5.0868E-03  0.0000E+00
     5.1035E-03  0.0000E+00
     5.1202E-03  0.0000E+00
     5.1369E-03  0.0000E+00
     5.1536E-03  0.0000E+00
     5.1702E-03  0.0000E+00
     5.1869E-03  0.0000E+00
     5.2036E-03  0.0000E+00
     5.2203E-03  0.0000E+00
     5.2369E-03  0.0000E+00
     5.2536E-03  0.0000E+00
     5.2703E-03  0.0000E+00
     5.2870E-03  0.0000E+00
     5.3037E-03  0.0000E+00
     5.3203E-03  0.0000E+00
     5.3370E-03  0.0000E+00
     5.3537E-03  0.0000E+00
     5.3704E-03  0.0000E+00
     5.3870E-03  0.0000E+00
     5.4037E-03  0.0000E+00
     5.4204E-03  0.0000E+00
     5.4371E-03  0.0000E+00
     5.4538E-03  0.0000E+00
     5.4704E-03  0.0000E+00
     5.4871E-03  0.0000E+00
     5.5038E-03  0.0000E+00
     5.5205E-03  0.0000E+00
     5.5372E-03  0.0000E+00
     5.5538E-03  0.0000E+00
     5.5705E-03  0.0000E+00
     5.5872E-03  0.0000E+00
     5.6039E-03  0.0000E+00
     5.6205E-03  0.0000E+00
     5.6372E-03  0.0000E+00
     5.6539E-03  0.0000E+00
     5.6706E-03  0.0000E+00
     5.6873E-03  0.0000E+00
     5.7039E-03  0.0000E+00
     5.7206E-03  0.0000E+00
     5.7373E-03  0.0000E+00
     5.7540E-03  0.0000E+00
     5.7706E-03  0.0000E+00
     5.7873E-03  0.0000E+00
     5.8040E-03  0.0000E+00
     5.8207E-03  0.0000E+00
     5.8374E-03  0.0000E+00
     5.8540E-03  0.0000E+00
     5.8707E-03  0.0000E+00
     5.8874E-03  0.0000E+00
     5.9041E-03  0.0000E+00
     5.9207E-03  0.0000E+00
     5.9374E-03  0.0000E+00
     5.9541E-03  0.0000E+00
     5.9708E-03  0.0000E+00
     5.9875E-03  0.0000E+00
     6.0041E-03  0.0000E+00
     6.0208E-03  0.0000E+00
     6.0375E-03  0.0000E+00
     6.0542E-03  0.0000E+00
     6.0709E-03  0.0000E+00
     6.0875E-03  0.0000E+00
     6.1042E-03  0.0000E+00
     6.1209E-03  0.0000E+00
     6.1376E-03  0.0000E+00
     6.1542E-03  0.0000E+00
     6.1709E-03  0.0000E+00
     6.1876E-03  0.0000E+00
     6.2043E-03  0.0000E+00
     6.2210E-03  0.0000E+00
     6.2376E-03  0.0000E+00
     6.2543E-03  0.0000E+00
     6.2710E-03  0.0000E+00
     6.2877E-03  0.0000E+00
     6.3043E-03  0.0000E+00
     6.3210E-03  0.0000E+00
     6.3377E-03  0.0000E+00
     6.3544E-03  0.0000E+00
     6.3711E-03  0.0000E+00
     6.3877E-03  0.0000E+00
     6.4044E-03  0.0000E+00
     6.4211E-03  0.0000E+00
     6.4378E-03  0.0000E+00
     6.4544E-03  0.0000E+00
     6.4711E-03  0.0000E+00
     6.4878E-03  0.0000E+00
     6.5045E-03  0.0000E+00
     6.5212E-03  0.0000E+00
     6.5378E-03  0.0000E+00
     6.5545E-03  0.0000E+00
     6.5712E-03  0.0000E+00
     6.5879E-03  0.0000E+00
     6.6046E-03  0.0000E+00
     6.6212E-03  0.0000E+00
     6.6379E-03  0.0000E+00
     6.6546E-03  0.0000E+00
     6.6713E-03  0.0000E+00
     6.6879E-03  0.0000E+00
     6.7046E-03  0.0000E+00
     6.7213E-03  0.0000E+00
     6.7380E-03  0.0000E+00
     6.7547E-03  0.0000E+00
     6.7713E-03  0.0000E+00
     6.7880E-03  0.0000E+00
     6.8047E-03  0.0000E+00
     6.8214E-03  0.0000E+00
     6.8380E-03  0.0000E+00
     6.8547E-03  0.0000E+00
     6.8714E-03  0.0000E+00
     6.8881E-03  0.0000E+00
     6.9048E-03  0.0000E+00
     6.9214E-03  0.0000E+00
     6.9381E-03  0.0000E+00
     6.9548E-03  0.0000E+00
     6.9715E-03  0.0000E+00
     6.9882E-03  0.0000E+00
     7.0048E-03  0.0000E+00
     7.0215E-03  0.0000E+00
     7.0382E-03  0.0000E+00
     7.0549E-03  0.0000E+00
     7.0715E-03  0.0000E+00
     7.0882E-03  0.0000E+00
     7.1049E-03  0.0000E+00
     7.1216E-03  0.0000E+00
     7.1383E-03  0.0000E+00
     7.1549E-03  0.0000E+00
     7.1716E-03  0.0000E+00
     7.1883E-03  0.0000E+00
     7.2050E-03  0.0000E+00
     7.2216E-03  0.0000E+00
     7.2383E-03  0.0000E+00
     7.2550E-03  0.0000E+00
     7.2717E-03  0.0000E+00
     7.2884E-03  0.0000E+00
     7.3050E-03  0.0000E+00
     7.3217E-03  0.0000E+00
     7.3384E-03  0.0000E+00
     7.3551E-03  0.0000E+00
     7.3717E-03  0.0000E+00
     7.3884E-03  0.0000E+00
     7.4051E-03  0.0000E+00
     7.4218E-03  0.0000E+00
     7.4385E-03  0.0000E+00
     7.4551E-03  0.0000E+00
     7.4718E-03  0.0000E+00
     7.4885E-03  0.0000E+00
     7.5052E-03  0.0000E+00
     7.5219E-03  0.0000E+00
     7.5385E-03  0.0000E+00
     7.5552E-03  0.0000E+00
     7.5719E-03  0.0000E+00
     7.5886E-03  0.0000E+00
     7.6052E-03  0.0000E+00
     7.6219E-03  0.0000E+00
     7.6386E-03  0.0000E+00
     7.6553E-03  0.0000E+00
     7.6720E-03  0.0000E+00
     7.6886E-03  0.0000E+00
     7.7053E-03  0.0000E+00
     7.7220E-03  0.0000E+00
     7.7387E-03  0.0000E+00
     7.7553E-03  0.0000E+00
     7.7720E-03  0.0000E+00
     7.7887E-03  0.0000E+00
     7.8054E-03  0.0000E+00
     7.8221E-03  0.0000E+00
     7.8387E-03  0.0000E+00
     7.8554E-03  0.0000E+00
     7.8721E-03  0.0000E+00
     7.8888E-03  0.0000E+00
     7.9054E-03  0.0000E+00
     7.9221E-03  0.0000E+00
     7.9388E-03  0.0000E+00
     7.9555E-03  0.0000E+00
     7.9722E-03  0.0000E+00
     7.9888E-03  0.0000E+00
     8.0055E-03  0.0000E+00
     8.0222E-03  0.0000E+00
     8.0389E-03  0.0000E+00
     8.0556E-03  0.0000E+00
     8.0722E-03  0.0000E+00
     8.0889E-03  0.0000E+00
     8.1056E-03  0.0000E+00
     8.1223E-03  0.0000E+00
     8.1389E-03  0.0000E+00
     8.1556E-03  0.0000E+00
     8.1723E-03  0.0000E+00
     8.1890E-03  0.0000E+00
     8.2057E-03  0.0000E+00
     8.2223E-03  0.0000E+00
     8.2390E-03  0.0000E+00
     8.2557E-03  0.0000E+00
     8.2724E-03  0.0000E+00
     8.2890E-03  0.0000E+00
     8.3057E-03  0.0000E+00
     8.3224E-03  0.0000E+00
     8.3391E-03  0.0000E+00
     8.3558E-03  0.0000E+00
     8.3724E-03  0.0000E+00
     8.3891E-03  0.0000E+00
     8.4058E-03  0.0000E+00
     8.4225E-03  0.0000E+00
     8.4392E-03  0.0000E+00
     8.4558E-03  0.0000E+00
     8.4725E-03  0.0000E+00
     8.4892E-03  0.0000E+00
     8.5059E-03  0.0000E+00
     8.5225E-03  0.0000E+00
     8.5392E-03  0.0000E+00
     8.5559E-03  0.0000E+00
     8.5726E-03  0.0000E+00
     8.5893E-03  0.0000E+00
     8.6059E-03  0.0000E+00
     8.6226E-03  0.0000E+00
     8.6393E-03  0.0000E+00
     8.6560E-03  0.0000E+00
     8.6726E-03  0.0000E+00
     8.6893E-03  0.0000E+00
     8.7060E-03  0.0000E+00
     8.7227E-03  0.0000E+00
     8.7394E-03  0.0000E+00
     8.7560E-03  0.0000E+00
     8.7727E-03  0.0000E+00
     8.7894E-03  0.0000E+00
     8.8061E-03  0.0000E+00
     8.8227E-03  0.0000E+00
     8.8394E-03  0.0000E+00
     8.8561E-03  0.0000E+00
     8.8728E-03  0.0000E+00
     8.8895E-03  0.0000E+00
     8.9061E-03  0.0000E+00
     8.9228E-03  0.0000E+00
     8.9395E-03  0.0000E+00
     8.9562E-03  0.0000E+00
     8.9729E-03  0.0000E+00
     8.9895E-03  0.0000E+00
     9.0062E-03  0.0000E+00
     9.0229E-03  0.0000E+00
     9.0396E-03  0.0000E+00
     9.0562E-03  0.0000E+00
     9.0729E-03  0.0000E+00
     9.0896E-03  0.0000E+00
     9.1063E-03  0.0000E+00
     9.1230E-03  0.0000E+00
     9.1396E-03  0.0000E+00
     9.1563E-03  0.0000E+00
     9.1730E-03  0.0000E+00
     9.1897E-03  0.0000E+00
     9.2063E-03  0.0000E+00
     9.2230E-03  0.0000E+00
     9.2397E-03  0.0000E+00
     9.2564E-03  0.0000E+00
     9.2731E-03  0.0000E+00
     9.2897E-03  0.0000E+00
     9.3064E-03  0.0000E+00
     9.3231E-03  0.0000E+00
     9.3398E-03  0.0000E+00
     9.3564E-03  0.0000E+00
     9.3731E-03  0.0000E+00
     9.3898E-03  0.0000E+00
     9.4065E-03  0.0000E+00
     9.4232E-03  0.0000E+00
     9.4398E-03  0.0000E+00
     9.4565E-03  0.0000E+00
     9.4732E-03  0.0000E+00
     9.4899E-03  0.0000E+00
     9.5066E-03  0.0000E+00
     9.5232E-03  0.0000E+00
     9.5399E-03  0.0000E+00
     9.5566E-03  0.0000E+00
     9.5733E-03  0.0000E+00
     9.5899E-03  0.0000E+00
     9.6066E-03  0.0000E+00
     9.6233E-03  0.0000E+00
     9.6400E-03  0.0000E+00
     9.6567E-03  0.0000E+00
     9.6733E-03  0.0000E+00
     9.6900E-03  0.0000E+00
     9.7067E-03  0.0000E+00
     9.7234E-03  0.0000E+00
     9.7400E-03  0.0000E+00
     9.7567E-03  0.0000E+00
     9.7734E-03  0.0000E+00
     9.7901E-03  0.0000E+00
     9.8068E-03  0.0000E+00
     9.8234E-03  0.0000E+00
     9.8401E-03  0.0000E+00
     9.8568E-03  0.0000E+00
     9.8735E-03  0.0000E+00
     9.8902E-03  0.0000E+00
     9.9068E-03  0.0000E+00
     9.9235E-03  0.0000E+00
     9.9402E-03  0.0000E+00
     9.9569E-03  0.0000E+00
     9.9735E-03  0.0000E+00
     9.9902E-03  0.0000E+00
     1.0007E-02  0.0000E+00
     1.0024E-02  0.0000E+00
     1.0040E-02  0.0000E+00
     1.0057E-02  0.0000E+00
     1.0074E-02  0.0000E+00
     1.0090E-02  0.0000E+00
     1.0107E-02  0.0000E+00
     1.0124E-02  0.0000E+00
     1.0140E-02  0.0000E+00
     1.0157E-02  0.0000E+00
     1.0174E-02  0.0000E+00
     1.0190E-02  0.0000E+00
     1.0207E-02  0.0000E+00
     1.0224E-02  0.0000E+00
     1.0240E-02  0.0000E+00
     1.0257E-02  0.0000E+00
     1.0274E-02  0.0000E+00
     1.0290E-02  0.0000E+00
     1.0307E-02  0.0000E+00
     1.0324E-02  0.0000E+00
     1.0340E-02  0.0000E+00
     1.0357E-02  0.0000E+00
     1.0374E-02  0.0000E+00
     1.0390E-02  0.0000E+00
     1.0407E-02  0.0000E+00
     1.0424E-02  0.0000E+00
     1.0441E-02  0.0000E+00
     1.0457E-02  0.0000E+00
     1.0474E-02  0.0000E+00
     1.0491E-02  0.0000E+00
     1.0507E-02  0.0000E+00
     1.0524E-02  0.0000E+00
     1.0541E-02  0.0000E+00
     1.0557E-02  0.0000E+00
     1.0574E-02  0.0000E+00
     1.0591E-02  0.0000E+00
     1.0607E-02  0.0000E+00
     1.0624E-02  0.0000E+00
     1.0641E-02  0.0000E+00
     1.0657E-02  0.0000E+00
     1.0674E-02  0.0000E+00
     1.0691E-02  0.0000E+00
     1.0707E-02  0.0000E+00
     1.0724E-02  0.0000E+00
     1.0741E-02  0.0000E+00
     1.0757E-02  0.0000E+00
     1.0774E-02  0.0000E+00
     1.0791E-02  0.0000E+00
     1.0807E-02  0.0000E+00
     1.0824E-02  0.0000E+00
     1.0841E-02  0.0000E+00
     1.0857E-02  0.0000E+00
     1.0874E-02  0.0000E+00
     1.0891E-02  0.0000E+00
     1.0908E-02  0.0000E+00
     1.0924E-02  0.0000E+00
     1.0941E-02  0.0000E+00
     1.0958E-02  0.0000E+00
     1.0974E-02  0.0000E+00
     1.0991E-02  0.0000E+00
     1.1008E-02  0.0000E+00
     1.1024E-02  0.0000E+00
     1.1041E-02  0.0000E+00
     1.1058E-02  0.0000E+00
     1.1074E-02  0.0000E+00
     1.1091E-02  0.0000E+00
     1.1108E-02  0.0000E+00
     1.1124E-02  0.0000E+00
     1.1141E-02  0.0000E+00
     1.1158E-02  0.0000E+00
     1.1174E-02  0.0000E+00
     1.1191E-02  0.0000E+00
     1.1208E-02  0.0000E+00
     1.1224E-02  0.0000E+00
     1.1241E-02  0.0000E+00
     1.1258E-02  0.0000E+00
     1.1274E-02  0.0000E+00
     1.1291E-02  0.0000E+00
     1.1308E-02  0.0000E+00
     1.1324E-02  0.0000E+00
     1.1341E-02  0.0000E+00
     1.1358E-02  0.0000E+00
     1.1375E-02  0.0000E+00
     1.1391E-02  0.0000E+00
     1.1408E-02  0.0000E+00
     1.1425E-02  0.0000E+00
     1.1441E-02  0.0000E+00
     1.1458E-02  0.0000E+00
     1.1475E-02  0.0000E+00
     1.1491E-02  0.0000E+00
     1.1508E-02  0.0000E+00
     1.1525E-02  0.0000E+00
     1.1541E-02  0.0000E+00
     1.1558E-02  0.0000E+00
     1.1575E-02  0.0000E+00
     1.1591E-02  0.0000E+00
     1.1608E-02  0.0000E+00
     1.1625E-02  0.0000E+00
     1.1641E-02  0.0000E+00
     1.1658E-02  0.0000E+00
     1.1675E-02  0.0000E+00
     1.1691E-02  0.0000E+00
     1.1708E-02  0.0000E+00
     1.1725E-02  0.0000E+00
     1.1741E-02  0.0000E+00
     1.1758E-02  0.0000E+00
     1.1775E-02  0.0000E+00
     1.1791E-02  0.0000E+00
     1.1808E-02  0.0000E+00
     1.1825E-02  0.0000E+00
     1.1841E-02  0.0000E+00
     1.1858E-02  0.0000E+00
     1.1875E-02  0.0000E+00
     1.1892E-02  0.0000E+00
     1.1908E-02  0.0000E+00
     1.1925E-02  0.0000E+00
     1.1942E-02  0.0000E+00
     1.1958E-02  0.0000E+00
     1.1975E-02  0.0000E+00
     1.1992E-02  0.0000E+00
     1.2008E-02  0.0000E+00
     1.2025E-02  0.0000E+00
     1.2042E-02  0.0000E+00
     1.2058E-02  0.0000E+00
     1.2075E-02  0.0000E+00
     1.2092E-02  0.0000E+00
     1.2108E-02  0.0000E+00
     1.2125E-02  0.0000E+00
     1.2142E-02  0.0000E+00
     1.2158E-02  0.0000E+00
     1.2175E-02  0.0000E+00
     1.2192E-02  0.0000E+00
     1.2208E-02  0.0000E+00
     1.2225E-02  0.0000E+00
     1.2242E-02  0.0000E+00
     1.2258E-02  0.0000E+00
     1.2275E-02  0.0000E+00
     1.2292E-02  0.0000E+00
     1.2308E-02  0.0000E+00
     1.2325E-02  0.0000E+00
     1.2342E-02  0.0000E+00
     1.2359E-02  0.0000E+00
     1.2375E-02  0.0000E+00
     1.2392E-02  0.0000E+00
     1.2409E-02  0.0000E+00
     1.2425E-02  0.0000E+00
     1.2442E-02  0.0000E+00
     1.2459E-02  0.0000E+00
     1.2475E-02  0.0000E+00
     1.2492E-02  0.0000E+00
     1.2509E-02  0.0000E+00
     1.2525E-02  0.0000E+00
     1.2542E-02  0.0000E+00
     1.2559E-02  0.0000E+00
     1.2575E-02  0.0000E+00
     1.2592E-02  0.0000E+00
     1.2609E-02  0.0000E+00
     1.2625E-02  0.0000E+00
     1.2642E-02  0.0000E+00
     1.2659E-02  0.0000E+00
     1.2675E-02  0.0000E+00
     1.2692E-02  0.0000E+00
     1.2709E-02  0.0000E+00
     1.2725E-02  0.0000E+00
     1.2742E-02  0.0000E+00
     1.2759E-02  0.0000E+00
     1.2775E-02  0.0000E+00
     1.2792E-02  0.0000E+00
     1.2809E-02  0.0000E+00
     1.2826E-02  0.0000E+00
     1.2842E-02  0.0000E+00
     1.2859E-02  0.0000E+00
     1.2876E-02  0.0000E+00
     1.2892E-02  0.0000E+00
     1.2909E-02  0.0000E+00
     1.2926E-02  0.0000E+00
     1.2942E-02  0.0000E+00
     1.2959E-02  0.0000E+00
     1.2976E-02  0.0000E+00
     1.2992E-02  0.0000E+00
     1.3009E-02  0.0000E+00
     1.3026E-02  0.0000E+00
     1.3042E-02  0.0000E+00
     1.3059E-02  0.0000E+00
     1.3076E-02  0.0000E+00
     1.3092E-02  0.0000E+00
     1.3109E-02  0.0000E+00
     1.3126E-02  0.0000E+00
     1.3142E-02  0.0000E+00
     1.3159E-02  0.0000E+00
     1.3176E-02  0.0000E+00
     1.3192E-02  0.0000E+00
     1.3209E-02  0.0000E+00
     1.3226E-02  0.0000E+00
     1.3242E-02  0.0000E+00
     1.3259E-02  0.0000E+00
     1.3276E-02  0.0000E+00
     1.3292E-02  0.0000E+00
     1.3309E-02  0.0000E+00
     1.3326E-02  0.0000E+00
     1.3343E-02  0.0000E+00
     1.3359E-02  0.0000E+00
     1.3376E-02  0.0000E+00
     1.3393E-02  0.0000E+00
     1.3409E-02  0.0000E+00
     1.3426E-02  0.0000E+00
     1.3443E-02  0.0000E+00
     1.3459E-02  0.0000E+00
     1.3476E-02  0.0000E+00
     1.3493E-02  0.0000E+00
     1.3509E-02  0.0000E+00
     1.3526E-02  0.0000E+00
     1.3543E-02  0.0000E+00
     1.3559E-02  0.0000E+00
     1.3576E-02  0.0000E+00
     1.3593E-02  0.0000E+00
     1.3609E-02  0.0000E+00
     1.3626E-02  0.0000E+00
     1.3643E-02  0.0000E+00
     1.3659E-02  0.0000E+00
     1.3676E-02  0.0000E+00
     1.3693E-02  0.0000E+00
     1.3709E-02  0.0000E+00
     1.3726E-02  0.0000E+00
     1.3743E-02  0.0000E+00
     1.3759E-02  0.0000E+00
     1.3776E-02  0.0000E+00
     1.3793E-02  0.0000E+00
     1.3810E-02  0.0000E+00
     1.3826E-02  0.0000E+00
     1.3843E-02  0.0000E+00
     1.3860E-02  0.0000E+00
     1.3876E-02  0.0000E+00
     1.3893E-02  0.0000E+00
     1.3910E-02  0.0000E+00
     1.3926E-02  0.0000E+00
     1.3943E-02  0.0000E+00
     1.3960E-02  0.0000E+00
     1.3976E-02  0.0000E+00
     1.3993E-02  0.0000E+00
     1.4010E-02  0.0000E+00
     1.4026E-02  0.0000E+00
     1.4043E-02  0.0000E+00
     1.4060E-02  0.0000E+00
     1.4076E-02  0.0000E+00
     1.4093E-02  0.0000E+00
     1.4110E-02  0.0000E+00
     1.4126E-02  0.0000E+00
     1.4143E-02  0.0000E+00
     1.4160E-02  0.0000E+00
     1.4176E-02  0.0000E+00
     1.4193E-02  0.0000E+00
     1.4210E-02  0.0000E+00
     1.4226E-02  0.0000E+00
     1.4243E-02  0.0000E+00
     1.4260E-02  0.0000E+00
     1.4277E-02  0.0000E+00
     1.4293E-02  0.0000E+00
     1.4310E-02  0.0000E+00
     1.4327E-02  0.0000E+00
     1.4343E-02  0.0000E+00
     1.4360E-02  0.0000E+00
     1.4377E-02  0.0000E+00
     1.4393E-02  0.0000E+00
     1.4410E-02  0.0000E+00
     1.4427E-02  0.0000E+00
     1.4443E-02  0.0000E+00
     1.4460E-02  0.0000E+00
     1.4477E-02  0.0000E+00
     1.4493E-02  0.0000E+00
     1.4510E-02  0.0000E+00
     1.4527E-02  0.0000E+00
     1.4543E-02  0.0000E+00
     1.4560E-02  0.0000E+00
     1.4577E-02  0.0000E+00
     1.4593E-02  0.0000E+00
     1.4610E-02  0.0000E+00
     1.4627E-02  0.0000E+00
     1.4643E-02  0.0000E+00
     1.4660E-02  0.0000E+00
     1.4677E-02  0.0000E+00
     1.4693E-02  0.0000E+00
     1.4710E-02  0.0000E+00
     1.4727E-02  0.0000E+00
     1.4743E-02  0.0000E+00
     1.4760E-02  0.0000E+00
     1.4777E-02  0.0000E+00
     1.4794E-02  0.0000E+00
     1.4810E-02  0.0000E+00
     1.4827E-02  0.0000E+00
     1.4844E-02  0.0000E+00
     1.4860E-02  0.0000E+00
     1.4877E-02  0.0000E+00
     1.4894E-02  0.0000E+00
     1.4910E-02  0.0000E+00
     1.4927E-02  0.0000E+00
     1.4944E-02  0.0000E+00
     1.4960E-02  0.0000E+00
     1.4977E-02  0.0000E+00
     1.4994E-02  0.0000E+00
     1.5010E-02  0.0000E+00
     1.5027E-02  0.0000E+00
     1.5044E-02  0.0000E+00
     1.5060E-02  0.0000E+00
     1.5077E-02  0.0000E+00
     1.5094E-02  0.0000E+00
     1.5110E-02  0.0000E+00
     1.5127E-02  0.0000E+00
     1.5144E-02  0.0000E+00
     1.5160E-02  0.0000E+00
     1.5177E-02  0.0000E+00
     1.5194E-02  0.0000E+00
     1.5210E-02  0.0000E+00
     1.5227E-02  0.0000E+00
     1.5244E-02  0.0000E+00
     1.5261E-02  0.0000E+00
     1.5277E-02  0.0000E+00
     1.5294E-02  0.0000E+00
     1.5311E-02  0.0000E+00
     1.5327E-02  0.0000E+00
     1.5344E-02  0.0000E+00
     1.5361E-02  0.0000E+00
     1.5377E-02  0.0000E+00
     1.5394E-02  0.0000E+00
     1.5411E-02  0.0000E+00
     1.5427E-02  0.0000E+00
     1.5444E-02  0.0000E+00
     1.5461E-02  0.0000E+00
     1.5477E-02  0.0000E+00
     1.5494E-02  0.0000E+00
     1.5511E-02  0.0000E+00
     1.5527E-02  0.0000E+00
     1.5544E-02  0.0000E+00
     1.5561E-02  0.0000E+00
     1.5577E-02  0.0000E+00
     1.5594E-02  0.0000E+00
     1.5611E-02  0.0000E+00
     1.5627E-02  0.0000E+00
     1.5644E-02  0.0000E+00
     1.5661E-02  0.0000E+00
     1.5677E-02  0.0000E+00
     1.5694E-02  0.0000E+00
     1.5711E-02  0.0000E+00
     1.5728E-02  0.0000E+00
     1.5744E-02  0.0000E+00
     1.5761E-02  0.0000E+00
     1.5778E-02  0.0000E+00
     1.5794E-02  0.0000E+00
     1.5811E-02  0.0000E+00
     1.5828E-02  0.0000E+00
     1.5844E-02  0.0000E+00
     1.5861E-02  0.0000E+00
     1.5878E-02  0.0000E+00
     1.5894E-02  0.0000E+00
     1.5911E-02  0.0000E+00
     1.5928E-02  0.0000E+00
     1.5944E-02  0.0000E+00
     1.5961E-02  0.0000E+00
     1.5978E-02  0.0000E+00
     1.5994E-02  0.0000E+00
     1.6011E-02  0.0000E+00
     1.6028E-02  0.0000E+00
     1.6044E-02  0.0000E+00
     1.6061E-02  0.0000E+00
     1.6078E-02  0.0000E+00
     1.6094E-02  0.0000E+00
     1.6111E-02  0.0000E+00
     1.6128E-02  0.0000E+00
     1.6144E-02  0.0000E+00
     1.6161E-02  0.0000E+00
     1.6178E-02  0.0000E+00
     1.6194E-02  0.0000E+00
     1.6211E-02  0.0000E+00
     1.6228E-02  0.0000E+00
     1.6245E-02  0.0000E+00
     1.6261E-02  0.0000E+00
     1.6278E-02  0.0000E+00
     1.6295E-02  0.0000E+00
     1.6311E-02  0.0000E+00
     1.6328E-02  0.0000E+00
     1.6345E-02  0.0000E+00
     1.6361E-02  0.0000E+00
     1.6378E-02  0.0000E+00
     1.6395E-02  0.0000E+00
     1.6411E-02  0.0000E+00
     1.6428E-02  0.0000E+00
     1.6445E-02  0.0000E+00
     1.6461E-02  0.0000E+00
     1.6478E-02  7.4718E-02
     1.6495E-02  6.1003E-01
     1.6511E-02  2.9476E-01
     1.6528E-02  2.0487E-02
     1.6545E-02  0.0000E+00
     1.6561E-02  0.0000E+00
     1.6578E-02  0.0000E+00
     1.6595E-02  0.0000E+00
     1.6611E-02  0.0000E+00
     1.6628E-02  0.0000E+00
     1.6645E-02  9.7816E-01
     1.6661E-02  2.1841E-02
   ------------------------
========================================
   Thermodynamic properties from phonons
========================================
Zero-point Energy (hartree)            0.07769803
Zero-point Energy (eV)                 2.11427108

=============================================================================================================================
           Temperature(K) Internal energy(Hartree)              Entropy(kB)     Free Energy(Hartree)        Specific Heat(kB)

             0.000000E+00             0.776980E-01             0.000000E+00             0.776980E-01             0.000000E+00
             0.100100E+01             0.776980E-01             0.849368E-03             0.776980E-01             0.381614E-02
             0.200200E+01             0.776981E-01             0.808550E-02             0.776980E-01             0.191569E-01
             0.300300E+01             0.776982E-01             0.188467E-01             0.776980E-01             0.350657E-01
             0.400400E+01             0.776983E-01             0.312145E-01             0.776979E-01             0.520150E-01
             0.500501E+01             0.776985E-01             0.448627E-01             0.776978E-01             0.716646E-01
             0.600601E+01             0.776988E-01             0.600046E-01             0.776976E-01             0.961599E-01
             0.700701E+01             0.776991E-01             0.770733E-01             0.776974E-01             0.127307E+00
             0.800801E+01             0.776996E-01             0.965140E-01             0.776971E-01             0.166019E+00
             0.900901E+01             0.777002E-01             0.118672E+00             0.776968E-01             0.212394E+00
             0.100100E+02             0.777009E-01             0.143766E+00             0.776964E-01             0.266066E+00
             0.110110E+02             0.777019E-01             0.171908E+00             0.776959E-01             0.326511E+00
             0.120120E+02             0.777030E-01             0.203134E+00             0.776953E-01             0.393204E+00
             0.130130E+02             0.777044E-01             0.237431E+00             0.776946E-01             0.465670E+00
             0.140140E+02             0.777060E-01             0.274757E+00             0.776938E-01             0.543479E+00
             0.150150E+02             0.777078E-01             0.315048E+00             0.776928E-01             0.626224E+00
             0.160160E+02             0.777099E-01             0.358226E+00             0.776918E-01             0.713502E+00
             0.170170E+02             0.777123E-01             0.404205E+00             0.776906E-01             0.804907E+00
             0.180180E+02             0.777150E-01             0.452888E+00             0.776892E-01             0.900034E+00
             0.190190E+02             0.777180E-01             0.504174E+00             0.776877E-01             0.998483E+00
             0.200200E+02             0.777214E-01             0.557955E+00             0.776860E-01             0.109987E+01
             0.210210E+02             0.777250E-01             0.614124E+00             0.776841E-01             0.120384E+01
             0.220220E+02             0.777290E-01             0.672570E+00             0.776821E-01             0.131005E+01
             0.230230E+02             0.777333E-01             0.733183E+00             0.776799E-01             0.141822E+01
             0.240240E+02             0.777380E-01             0.795858E+00             0.776775E-01             0.152808E+01
             0.250250E+02             0.777430E-01             0.860489E+00             0.776748E-01             0.163942E+01
             0.260260E+02             0.777484E-01             0.926979E+00             0.776720E-01             0.175204E+01
             0.270270E+02             0.777541E-01             0.995231E+00             0.776690E-01             0.186580E+01
             0.280280E+02             0.777602E-01             0.106516E+01             0.776657E-01             0.198058E+01
             0.290290E+02             0.777667E-01             0.113667E+01             0.776622E-01             0.209627E+01
             0.300300E+02             0.777735E-01             0.120970E+01             0.776585E-01             0.221280E+01
             0.310310E+02             0.777807E-01             0.128417E+01             0.776545E-01             0.233013E+01
             0.320320E+02             0.777883E-01             0.136001E+01             0.776503E-01             0.244821E+01
             0.330330E+02             0.777962E-01             0.143716E+01             0.776459E-01             0.256702E+01
             0.340340E+02             0.778046E-01             0.151557E+01             0.776412E-01             0.268655E+01
             0.350350E+02             0.778133E-01             0.159518E+01             0.776363E-01             0.280678E+01
             0.360360E+02             0.778224E-01             0.167594E+01             0.776311E-01             0.292773E+01
             0.370370E+02             0.778318E-01             0.175782E+01             0.776257E-01             0.304940E+01
             0.380380E+02             0.778417E-01             0.184076E+01             0.776200E-01             0.317179E+01
             0.390390E+02             0.778519E-01             0.192474E+01             0.776140E-01             0.329491E+01
             0.400400E+02             0.778626E-01             0.200972E+01             0.776078E-01             0.341879E+01
             0.410410E+02             0.778736E-01             0.209567E+01             0.776013E-01             0.354343E+01
             0.420420E+02             0.778851E-01             0.218256E+01             0.775945E-01             0.366884E+01
             0.430430E+02             0.778969E-01             0.227037E+01             0.775874E-01             0.379504E+01
             0.440440E+02             0.779091E-01             0.235907E+01             0.775801E-01             0.392203E+01
             0.450450E+02             0.779218E-01             0.244864E+01             0.775725E-01             0.404983E+01
             0.460460E+02             0.779348E-01             0.253906E+01             0.775645E-01             0.417843E+01
             0.470470E+02             0.779482E-01             0.263030E+01             0.775564E-01             0.430785E+01
             0.480480E+02             0.779621E-01             0.272236E+01             0.775479E-01             0.443808E+01
             0.490490E+02             0.779764E-01             0.281522E+01             0.775391E-01             0.456912E+01
             0.500501E+02             0.779911E-01             0.290885E+01             0.775300E-01             0.470098E+01
             0.510511E+02             0.780062E-01             0.300325E+01             0.775207E-01             0.483365E+01
             0.520521E+02             0.780217E-01             0.309840E+01             0.775110E-01             0.496711E+01
             0.530531E+02             0.780377E-01             0.319429E+01             0.775010E-01             0.510137E+01
             0.540541E+02             0.780541E-01             0.329090E+01             0.774907E-01             0.523640E+01
             0.550551E+02             0.780709E-01             0.338823E+01             0.774801E-01             0.537221E+01
             0.560561E+02             0.780881E-01             0.348625E+01             0.774692E-01             0.550876E+01
             0.570571E+02             0.781058E-01             0.358496E+01             0.774580E-01             0.564605E+01
             0.580581E+02             0.781239E-01             0.368435E+01             0.774465E-01             0.578405E+01
             0.590591E+02             0.781425E-01             0.378441E+01             0.774347E-01             0.592275E+01
             0.600601E+02             0.781615E-01             0.388512E+01             0.774225E-01             0.606212E+01
             0.610611E+02             0.781809E-01             0.398648E+01             0.774100E-01             0.620214E+01
             0.620621E+02             0.782008E-01             0.408847E+01             0.773972E-01             0.634279E+01
             0.630631E+02             0.782211E-01             0.419108E+01             0.773841E-01             0.648403E+01
             0.640641E+02             0.782419E-01             0.429431E+01             0.773707E-01             0.662585E+01
             0.650651E+02             0.782631E-01             0.439814E+01             0.773569E-01             0.676821E+01
             0.660661E+02             0.782848E-01             0.450256E+01             0.773428E-01             0.691109E+01
             0.670671E+02             0.783069E-01             0.460756E+01             0.773284E-01             0.705445E+01
             0.680681E+02             0.783295E-01             0.471313E+01             0.773136E-01             0.719827E+01
             0.690691E+02             0.783526E-01             0.481927E+01             0.772985E-01             0.734252E+01
             0.700701E+02             0.783761E-01             0.492596E+01             0.772830E-01             0.748717E+01
             0.710711E+02             0.784001E-01             0.503319E+01             0.772672E-01             0.763219E+01
             0.720721E+02             0.784245E-01             0.514094E+01             0.772511E-01             0.777754E+01
             0.730731E+02             0.784494E-01             0.524922E+01             0.772346E-01             0.792320E+01
             0.740741E+02             0.784747E-01             0.535801E+01             0.772178E-01             0.806913E+01
             0.750751E+02             0.785005E-01             0.546731E+01             0.772007E-01             0.821531E+01
             0.760761E+02             0.785268E-01             0.557709E+01             0.771832E-01             0.836171E+01
             0.770771E+02             0.785535E-01             0.568735E+01             0.771653E-01             0.850829E+01
             0.780781E+02             0.785807E-01             0.579808E+01             0.771471E-01             0.865503E+01
             0.790791E+02             0.786084E-01             0.590927E+01             0.771286E-01             0.880189E+01
             0.800801E+02             0.786365E-01             0.602091E+01             0.771096E-01             0.894886E+01
             0.810811E+02             0.786651E-01             0.613299E+01             0.770904E-01             0.909590E+01
             0.820821E+02             0.786942E-01             0.624549E+01             0.770708E-01             0.924298E+01
             0.830831E+02             0.787237E-01             0.635842E+01             0.770508E-01             0.939008E+01
             0.840841E+02             0.787537E-01             0.647176E+01             0.770305E-01             0.953717E+01
             0.850851E+02             0.787842E-01             0.658549E+01             0.770098E-01             0.968424E+01
             0.860861E+02             0.788151E-01             0.669962E+01             0.769887E-01             0.983124E+01
             0.870871E+02             0.788465E-01             0.681412E+01             0.769673E-01             0.997816E+01
             0.880881E+02             0.788784E-01             0.692900E+01             0.769455E-01             0.101250E+02
             0.890891E+02             0.789107E-01             0.704423E+01             0.769234E-01             0.102717E+02
             0.900901E+02             0.789435E-01             0.715982E+01             0.769008E-01             0.104182E+02
             0.910911E+02             0.789768E-01             0.727575E+01             0.768780E-01             0.105646E+02
             0.920921E+02             0.790105E-01             0.739200E+01             0.768547E-01             0.107108E+02
             0.930931E+02             0.790447E-01             0.750859E+01             0.768311E-01             0.108568E+02
             0.940941E+02             0.790793E-01             0.762548E+01             0.768071E-01             0.110025E+02
             0.950951E+02             0.791144E-01             0.774268E+01             0.767827E-01             0.111480E+02
             0.960961E+02             0.791500E-01             0.786017E+01             0.767580E-01             0.112933E+02
             0.970971E+02             0.791860E-01             0.797795E+01             0.767329E-01             0.114382E+02
             0.980981E+02             0.792225E-01             0.809601E+01             0.767074E-01             0.115829E+02
             0.990991E+02             0.792595E-01             0.821434E+01             0.766816E-01             0.117273E+02
             0.100100E+03             0.792969E-01             0.833292E+01             0.766554E-01             0.118713E+02
             0.101101E+03             0.793347E-01             0.845176E+01             0.766288E-01             0.120151E+02
             0.102102E+03             0.793731E-01             0.857084E+01             0.766018E-01             0.121584E+02
             0.103103E+03             0.794118E-01             0.869016E+01             0.765744E-01             0.123015E+02
             0.104104E+03             0.794510E-01             0.880970E+01             0.765467E-01             0.124441E+02
             0.105105E+03             0.794907E-01             0.892946E+01             0.765186E-01             0.125864E+02
             0.106106E+03             0.795308E-01             0.904944E+01             0.764901E-01             0.127283E+02
             0.107107E+03             0.795714E-01             0.916962E+01             0.764612E-01             0.128698E+02
             0.108108E+03             0.796124E-01             0.928999E+01             0.764319E-01             0.130108E+02
             0.109109E+03             0.796539E-01             0.941056E+01             0.764023E-01             0.131515E+02
             0.110110E+03             0.796958E-01             0.953130E+01             0.763723E-01             0.132917E+02
             0.111111E+03             0.797382E-01             0.965222E+01             0.763419E-01             0.134316E+02
             0.112112E+03             0.797810E-01             0.977331E+01             0.763111E-01             0.135709E+02
             0.113113E+03             0.798242E-01             0.989456E+01             0.762799E-01             0.137099E+02
             0.114114E+03             0.798679E-01             0.100160E+02             0.762483E-01             0.138484E+02
             0.115115E+03             0.799120E-01             0.101375E+02             0.762164E-01             0.139864E+02
             0.116116E+03             0.799566E-01             0.102592E+02             0.761841E-01             0.141240E+02
             0.117117E+03             0.800016E-01             0.103810E+02             0.761514E-01             0.142612E+02
             0.118118E+03             0.800470E-01             0.105030E+02             0.761183E-01             0.143978E+02
             0.119119E+03             0.800928E-01             0.106251E+02             0.760848E-01             0.145340E+02
             0.120120E+03             0.801391E-01             0.107472E+02             0.760509E-01             0.146698E+02
             0.121121E+03             0.801858E-01             0.108695E+02             0.760166E-01             0.148050E+02
             0.122122E+03             0.802330E-01             0.109920E+02             0.759820E-01             0.149398E+02
             0.123123E+03             0.802806E-01             0.111145E+02             0.759469E-01             0.150741E+02
             0.124124E+03             0.803286E-01             0.112371E+02             0.759115E-01             0.152080E+02
             0.125125E+03             0.803770E-01             0.113598E+02             0.758757E-01             0.153413E+02
             0.126126E+03             0.804258E-01             0.114825E+02             0.758395E-01             0.154742E+02
             0.127127E+03             0.804751E-01             0.116054E+02             0.758029E-01             0.156066E+02
             0.128128E+03             0.805248E-01             0.117283E+02             0.757659E-01             0.157385E+02
             0.129129E+03             0.805749E-01             0.118513E+02             0.757285E-01             0.158700E+02
             0.130130E+03             0.806254E-01             0.119743E+02             0.756908E-01             0.160009E+02
             0.131131E+03             0.806763E-01             0.120975E+02             0.756526E-01             0.161314E+02
             0.132132E+03             0.807277E-01             0.122206E+02             0.756141E-01             0.162614E+02
[...]
             0.921922E+03             0.179985E+00             0.792872E+02            -0.514981E-01             0.488372E+02
             0.922923E+03             0.180140E+00             0.793402E+02            -0.517495E-01             0.488452E+02
             0.923924E+03             0.180295E+00             0.793931E+02            -0.520011E-01             0.488531E+02
             0.924925E+03             0.180450E+00             0.794460E+02            -0.522528E-01             0.488611E+02
             0.925926E+03             0.180605E+00             0.794989E+02            -0.525048E-01             0.488690E+02
             0.926927E+03             0.180760E+00             0.795517E+02            -0.527569E-01             0.488768E+02
             0.927928E+03             0.180915E+00             0.796044E+02            -0.530091E-01             0.488847E+02
             0.928929E+03             0.181070E+00             0.796571E+02            -0.532616E-01             0.488925E+02
             0.929930E+03             0.181225E+00             0.797098E+02            -0.535142E-01             0.489003E+02
             0.930931E+03             0.181380E+00             0.797624E+02            -0.537669E-01             0.489082E+02
             0.931932E+03             0.181535E+00             0.798150E+02            -0.540198E-01             0.489159E+02
             0.932933E+03             0.181690E+00             0.798675E+02            -0.542729E-01             0.489237E+02
             0.933934E+03             0.181845E+00             0.799200E+02            -0.545262E-01             0.489315E+02
             0.934935E+03             0.182000E+00             0.799724E+02            -0.547796E-01             0.489392E+02
             0.935936E+03             0.182155E+00             0.800248E+02            -0.550332E-01             0.489469E+02
             0.936937E+03             0.182310E+00             0.800771E+02            -0.552870E-01             0.489546E+02
             0.937938E+03             0.182465E+00             0.801294E+02            -0.555409E-01             0.489623E+02
             0.938939E+03             0.182621E+00             0.801816E+02            -0.557950E-01             0.489699E+02
             0.939940E+03             0.182776E+00             0.802338E+02            -0.560493E-01             0.489775E+02
             0.940941E+03             0.182931E+00             0.802859E+02            -0.563037E-01             0.489852E+02
             0.941942E+03             0.183087E+00             0.803380E+02            -0.565583E-01             0.489928E+02
             0.942943E+03             0.183242E+00             0.803901E+02            -0.568130E-01             0.490004E+02
             0.943944E+03             0.183397E+00             0.804420E+02            -0.570679E-01             0.490079E+02
             0.944945E+03             0.183553E+00             0.804940E+02            -0.573230E-01             0.490155E+02
             0.945946E+03             0.183708E+00             0.805459E+02            -0.575783E-01             0.490230E+02
             0.946947E+03             0.183863E+00             0.805977E+02            -0.578337E-01             0.490305E+02
             0.947948E+03             0.184019E+00             0.806496E+02            -0.580893E-01             0.490380E+02
             0.948949E+03             0.184174E+00             0.807013E+02            -0.583450E-01             0.490455E+02
             0.949950E+03             0.184330E+00             0.807530E+02            -0.586009E-01             0.490529E+02
             0.950951E+03             0.184485E+00             0.808047E+02            -0.588570E-01             0.490604E+02
             0.951952E+03             0.184641E+00             0.808563E+02            -0.591132E-01             0.490678E+02
             0.952953E+03             0.184796E+00             0.809079E+02            -0.593696E-01             0.490752E+02
             0.953954E+03             0.184952E+00             0.809594E+02            -0.596262E-01             0.490826E+02
             0.954955E+03             0.185108E+00             0.810109E+02            -0.598829E-01             0.490900E+02
             0.955956E+03             0.185263E+00             0.810623E+02            -0.601398E-01             0.490973E+02
             0.956957E+03             0.185419E+00             0.811137E+02            -0.603968E-01             0.491047E+02
             0.957958E+03             0.185574E+00             0.811651E+02            -0.606540E-01             0.491120E+02
             0.958959E+03             0.185730E+00             0.812163E+02            -0.609114E-01             0.491193E+02
             0.959960E+03             0.185886E+00             0.812676E+02            -0.611689E-01             0.491266E+02
             0.960961E+03             0.186042E+00             0.813188E+02            -0.614266E-01             0.491339E+02
             0.961962E+03             0.186197E+00             0.813700E+02            -0.616845E-01             0.491411E+02
             0.962963E+03             0.186353E+00             0.814211E+02            -0.619425E-01             0.491484E+02
             0.963964E+03             0.186509E+00             0.814721E+02            -0.622007E-01             0.491556E+02
             0.964965E+03             0.186665E+00             0.815232E+02            -0.624590E-01             0.491628E+02
             0.965966E+03             0.186821E+00             0.815741E+02            -0.627175E-01             0.491700E+02
             0.966967E+03             0.186977E+00             0.816251E+02            -0.629762E-01             0.491772E+02
             0.967968E+03             0.187132E+00             0.816760E+02            -0.632350E-01             0.491843E+02
             0.968969E+03             0.187288E+00             0.817268E+02            -0.634940E-01             0.491915E+02
             0.969970E+03             0.187444E+00             0.817776E+02            -0.637532E-01             0.491986E+02
             0.970971E+03             0.187600E+00             0.818283E+02            -0.640125E-01             0.492057E+02
             0.971972E+03             0.187756E+00             0.818790E+02            -0.642720E-01             0.492128E+02
             0.972973E+03             0.187912E+00             0.819297E+02            -0.645316E-01             0.492199E+02
             0.973974E+03             0.188068E+00             0.819803E+02            -0.647914E-01             0.492269E+02
             0.974975E+03             0.188224E+00             0.820309E+02            -0.650514E-01             0.492340E+02
             0.975976E+03             0.188380E+00             0.820814E+02            -0.653115E-01             0.492410E+02
             0.976977E+03             0.188537E+00             0.821319E+02            -0.655718E-01             0.492480E+02
             0.977978E+03             0.188693E+00             0.821823E+02            -0.658322E-01             0.492550E+02
             0.978979E+03             0.188849E+00             0.822327E+02            -0.660928E-01             0.492620E+02
             0.979980E+03             0.189005E+00             0.822831E+02            -0.663536E-01             0.492689E+02
             0.980981E+03             0.189161E+00             0.823334E+02            -0.666145E-01             0.492759E+02
             0.981982E+03             0.189317E+00             0.823836E+02            -0.668755E-01             0.492828E+02
             0.982983E+03             0.189474E+00             0.824339E+02            -0.671368E-01             0.492897E+02
             0.983984E+03             0.189630E+00             0.824840E+02            -0.673982E-01             0.492966E+02
             0.984985E+03             0.189786E+00             0.825341E+02            -0.676597E-01             0.493035E+02
             0.985986E+03             0.189943E+00             0.825842E+02            -0.679214E-01             0.493104E+02
             0.986987E+03             0.190099E+00             0.826343E+02            -0.681833E-01             0.493172E+02
             0.987988E+03             0.190255E+00             0.826843E+02            -0.684453E-01             0.493241E+02
             0.988989E+03             0.190412E+00             0.827342E+02            -0.687075E-01             0.493309E+02
             0.989990E+03             0.190568E+00             0.827841E+02            -0.689699E-01             0.493377E+02
             0.990991E+03             0.190724E+00             0.828340E+02            -0.692324E-01             0.493445E+02
             0.991992E+03             0.190881E+00             0.828838E+02            -0.694950E-01             0.493513E+02
             0.992993E+03             0.191037E+00             0.829336E+02            -0.697579E-01             0.493581E+02
             0.993994E+03             0.191194E+00             0.829833E+02            -0.700208E-01             0.493648E+02
             0.994995E+03             0.191350E+00             0.830330E+02            -0.702840E-01             0.493715E+02
             0.995996E+03             0.191507E+00             0.830827E+02            -0.705473E-01             0.493783E+02
             0.996997E+03             0.191663E+00             0.831323E+02            -0.708107E-01             0.493850E+02
             0.997998E+03             0.191820E+00             0.831818E+02            -0.710743E-01             0.493917E+02
             0.998999E+03             0.191976E+00             0.832314E+02            -0.713381E-01             0.493983E+02
             0.100000E+04             0.192133E+00             0.832808E+02            -0.716020E-01             0.494050E+02
=============================================================================================================================


    =====================
     CALCULATION RESULTS
    =====================

Energy (hartree)           -70.40927988

Phonon information present.

--------------
Atomic charges
--------------
  Index   Atom    Charge
      1      O   -0.4355
      2      O   -0.4655
      3      O   -0.4261
      4      O   -0.5234
      5      O   -0.4352
      6      O   -0.4454
      7     Si    0.4926
      8     Si    0.8731
      9     Si    0.9198
     10      O   -0.6516
     11      O   -0.4344
     12      O   -0.4506
     13      O   -0.4312
     14      O   -0.5634
     15      O   -0.4247
     16     Si    0.9246
     17     Si    0.9109
     18     Si    0.8502
     19      H    0.3880
     20      H    0.3279

 
--------------------
Energy Decomposition
--------------------
Total Energy (hartree)               -70.40927988
Total Energy (eV)                  -1915.93398901
Electronic Energy (hartree)          -70.84613715
Coulomb Energy (hartree)               0.10274711
Repulsion Energy (hartree)             0.38918283
Dispersion Energy (hartree)           -0.05507267
 
----------------
Mulliken Charges
----------------
  Index   Atom          Charge      Population
      1      O   -0.4355466756        6.435547
      2      O   -0.4654825975        6.465483
      3      O   -0.4261451893        6.426145
      4      O   -0.5234056294        6.523406
      5      O   -0.4351786463        6.435179
      6      O   -0.4453651996        6.445365
      7     Si    0.4926442613        3.507356
      8     Si    0.8730897710        3.126910
      9     Si    0.9197768778        3.080223
     10      O   -0.6515839785        6.651584
     11      O   -0.4344239741        6.434424
     12      O   -0.4506435452        6.450644
     13      O   -0.4311640952        6.431164
     14      O   -0.5633974262        6.563397
     15      O   -0.4247355601        6.424736
     16     Si    0.9245681278        3.075432
     17     Si    0.9109497668        3.089050
     18     Si    0.8501681287        3.149832
     19      H    0.3880011376        0.611999
     20      H    0.3278744461        0.672126
         Total   -0.0000000000       98.000000
 
----------------------
Mulliken Shell Charges
----------------------
  Index   Atom      L          Charge      Population
      1      O      0    0.3714281595        1.628572
      2      O      1   -0.8069748351        4.806975
      3      O      0    0.3439382760        1.656062
      4      O      1   -0.8094208735        4.809421
      5      O      0    0.3738651611        1.626135
      6      O      1   -0.8000103504        4.800010
      7      O      0    0.3263990652        1.673601
      8      O      1   -0.8498046946        4.849805
      9      O      0    0.3715599428        1.628440
     10      O      1   -0.8067385891        4.806739
     11      O      0    0.3676264862        1.632374
     12      O      1   -0.8129916859        4.812992
     13     Si      0    0.3269218284        1.673078
     14     Si      1    0.9890039867        1.010996
     15     Si      2   -0.8232815539        0.823282
     16     Si      0    1.1966123059        0.803388
     17     Si      1    1.0597701281        0.940230
     18     Si      2   -1.3832926630        1.383293
     19     Si      0    1.1975182050        0.802482
     20     Si      1    1.1251145838        0.874885
     21     Si      2   -1.4028559109        1.402856
     22      O      0    0.3130926087        1.686907
     23      O      1   -0.9646765872        4.964677
     24      O      0    0.3718603236        1.628140
     25      O      1   -0.8062842977        4.806284
     26      O      0    0.3667820840        1.633218
     27      O      1   -0.8174256293        4.817426
     28      O      0    0.3728483256        1.627152
     29      O      1   -0.8040124207        4.804012
     30      O      0    0.3349070412        1.665093
     31      O      1   -0.8983044675        4.898304
     32      O      0    0.3748723014        1.625128
     33      O      1   -0.7996078615        4.799608
     34     Si      0    1.1960574585        0.803943
     35     Si      1    1.1357300067        0.864270
     36     Si      2   -1.4072193374        1.407219
     37     Si      0    1.2011439699        0.798856
     38     Si      1    1.1067721180        0.893228
     39     Si      2   -1.3969663211        1.396966
     40     Si      0    1.2123836402        0.787616
     41     Si      1    1.0151654178        0.984835
     42     Si      2   -1.3773809293        1.377381
     43      H      0    0.4235508451        0.576449
     44      H      0   -0.0355497076        0.035550
     45      H      0    0.3576408765        0.642359
     46      H      0   -0.0297664303        0.029766
                Total   -0.0000000000       98.000000
 



 ===================================
 B A N D   E N E R G Y   R A N G E S
 ===================================
  
 The energies below are in Hartree.
 =================================================
       band          min          max   occupation
 =================================================
          1     -0.43257     -0.43011      2.00000
          2     -0.42613     -0.42275      2.00000
          3     -0.40156     -0.39964      2.00000
          4     -0.39525     -0.39147      2.00000
          5     -0.38986     -0.38463      2.00000
          6     -0.38671     -0.38097      2.00000
          7     -0.38261     -0.37808      2.00000
          8     -0.37769     -0.37431      2.00000
          9     -0.37272     -0.36651      2.00000
         10     -0.36633     -0.36081      2.00000
         11     -0.36202     -0.35937      2.00000
         12     -0.35858     -0.35600      2.00000
         13     -0.30329     -0.28608      2.00000
         14     -0.29040     -0.27595      2.00000
         15     -0.27818     -0.26550      2.00000
         16     -0.27071     -0.25531      2.00000
         17     -0.25247     -0.24141      2.00000
         18     -0.24846     -0.22508      2.00000
         19     -0.23619     -0.22058      2.00000
         20     -0.22467     -0.21628      2.00000
         21     -0.21751     -0.21130      2.00000
         22     -0.21139     -0.20773      2.00000
         23     -0.20750     -0.20221      2.00000
         24     -0.20392     -0.20026      2.00000
         25     -0.20040     -0.19800      2.00000
         26     -0.19653     -0.19286      2.00000
         27     -0.19599     -0.18959      2.00000
         28     -0.19212     -0.18466      2.00000
         29     -0.18987     -0.18357      2.00000
         30     -0.18632     -0.18189      2.00000
         31     -0.18338     -0.17846      2.00000
         32     -0.18013     -0.17467      2.00000
         33     -0.17630     -0.17211      2.00000
         34     -0.17299     -0.16858      2.00000
         35     -0.16839     -0.16557      2.00000
         36     -0.16762     -0.15997      2.00000
         37     -0.16184     -0.15659      2.00000
         38     -0.15879     -0.15190      2.00000
         39     -0.15522     -0.14931      2.00000
         40     -0.15074     -0.14608      2.00000
         41     -0.14678     -0.14246      2.00000
         42     -0.14270     -0.13749      2.00000
         43     -0.13900     -0.13316      2.00000
         44     -0.13373     -0.12995      2.00000
         45     -0.12725     -0.12297      2.00000
         46     -0.12179     -0.11533      2.00000
         47     -0.11795     -0.11070      2.00000
         48     -0.10993     -0.10526      2.00000
         49     -0.04571     -0.03206      2.00000
         50      0.15071      0.16851      0.00000
         51      0.16605      0.20790      0.00000
         52      0.20054      0.24637      0.00000
         53      0.22999      0.25431      0.00000
         54      0.25515      0.26894      0.00000
         55      0.27213      0.32650      0.00000
         56      0.32001      0.35809      0.00000
         57      0.34974      0.37465      0.00000
         58      0.35922      0.38509      0.00000
         59      0.36372      0.38937      0.00000
         60      0.37299      0.39967      0.00000
         61      0.38365      0.40149      0.00000
         62      0.39541      0.40921      0.00000
         63      0.40707      0.41384      0.00000
         64      0.41318      0.43071      0.00000
         65      0.42263      0.43386      0.00000
         66      0.43144      0.44667      0.00000
         67      0.43530      0.45170      0.00000
         68      0.44352      0.45769      0.00000
         69      0.44880      0.47443      0.00000
         70      0.45586      0.48513      0.00000
         71      0.46267      0.49419      0.00000
         72      0.47269      0.50430      0.00000
         73      0.48217      0.53235      0.00000
         74      0.51705      0.55906      0.00000
         75      0.54262      0.57982      0.00000
         76      0.57459      0.63494      0.00000
         77      0.60548      0.64536      0.00000
         78      0.61874      0.66467      0.00000
         79      0.66184      0.67634      0.00000
         80      0.66779      0.69250      0.00000
         81      0.69476      0.71834      0.00000
         82      0.71194      0.75384      0.00000
         83      0.72465      0.76953      0.00000
         84      0.74328      0.79684      0.00000
         85      0.76685      0.81120      0.00000
         86      0.77431      0.82802      0.00000
         87      0.77783      0.84778      0.00000
         88      0.80187      0.86013      0.00000
         89      0.82754      0.89338      0.00000
 =================================================

AMS application finished. Exiting.
NORMAL TERMINATION
     Total cpu time:     277.68
  Total system time:       2.02
 Total elapsed time:     289.80
