 argument  1 = Pb.scf_ecp_scalar.nw
                                         
                                         


             Northwest Computational Chemistry Package (NWChem) 7.0.2
             --------------------------------------------------------


                    Environmental Molecular Sciences Laboratory
                       Pacific Northwest National Laboratory
                                Richland, WA 99352

                              Copyright (c) 1994-2020
                       Pacific Northwest National Laboratory
                            Battelle Memorial Institute

             NWChem is an open-source computational chemistry package
                        distributed under the terms of the
                      Educational Community License (ECL) 2.0
             A copy of the license is included with this distribution
                              in the LICENSE.TXT file

                                  ACKNOWLEDGMENT
                                  --------------

            This software and its documentation were developed at the
            EMSL at Pacific Northwest National Laboratory, a multiprogram
            national laboratory, operated for the U.S. Department of Energy
            by Battelle under Contract Number DE-AC05-76RL01830. Support
            for this work was provided by the Department of Energy Office
            of Biological and Environmental Research, Office of Basic
            Energy Sciences, and the Office of Advanced Scientific Computing.


           Job information
           ---------------

    hostname        = MIRO
    program         = /usr/bin/nwchem
    date            = Sat Oct 26 00:01:14 2024

    compiled        = Sat_Apr_09_17:12:10_2022
    source          = /build/nwchem-f1f4gx/nwchem-7.0.2/build-openmpi
    nwchem branch   = 7.0.2
    nwchem revision = N/A
    ga revision     = 5.8.1
    use scalapack   = T
    input           = Pb.scf_ecp_scalar.nw
    prefix          = Pb.
    data base       = ./Pb.db
    status          = startup
    nproc           =        4
    time left       =     -1s



           Memory information
           ------------------

    heap     =   13107194 doubles =    100.0 Mbytes
    stack    =   13107199 doubles =    100.0 Mbytes
    global   =   26214400 doubles =    200.0 Mbytes (distinct from heap & stack)
    total    =   52428793 doubles =    400.0 Mbytes
    verify   = yes
    hardfail = no 


           Directory information
           ---------------------

  0 permanent = .
  0 scratch   = .




                                NWChem Input Module
                                -------------------


                                  Pb, scalar ECP
                                  --------------


                             Geometry "geometry" -> ""
                             -------------------------

 Output coordinates in a.u. (scale by  1.000000000 to convert to a.u.)

  No.       Tag          Charge          X              Y              Z
 ---- ---------------- ---------- -------------- -------------- --------------
    1 Pb                  82.0000     0.00000000     0.00000000     0.00000000

      Atomic Mass 
      ----------- 

      Pb               207.976600


 Effective nuclear repulsion energy (a.u.)       0.0000000000

            Nuclear Dipole moment (a.u.) 
            ----------------------------
        X                 Y               Z
 ---------------- ---------------- ----------------
     0.0000000000     0.0000000000     0.0000000000


            XYZ format geometry
            -------------------
     1
 geometry
 Pb                    0.00000000     0.00000000     0.00000000

                      Basis "ao basis" -> "" (cartesian)
                      -----
  Pb (Lead)
  ---------
            Exponent  Coefficients 
       -------------- ---------------------------------------------------------
  1 S  5.92000000E-01  1.000000

  2 S  3.02800000E-01  1.000000

  3 S  9.22000000E-02  1.000000

  4 P  7.56400000E-01  1.000000

  5 P  1.87600000E-01  1.000000

  6 P  6.10000000E-02  1.000000

  7 D  1.58880000E+00  1.000000

  8 D  6.13700000E-01  1.000000

  9 D  2.33900000E-01  1.000000

 10 D  6.55000000E-02  1.000000



 Summary of "ao basis" -> "" (cartesian)
 ------------------------------------------------------------------------------
       Tag                 Description            Shells   Functions and Types
 ---------------- ------------------------------  ------  ---------------------
 Pb                        crenbl ecp               10       36   3s3p4d


                 ECP       "ecp basis" -> "" (cartesian)
                -----
  Pb (Lead) Replaces    68 electrons
  ----------------------------------
             Channel    R-exponent     Exponent     Coefficients
         ------------ ---------------------------------------------------------
  1 U L       Both         2.00        1.300100      -1.414344
  1 U L       Both         2.00        3.187200     -13.280216
  1 U L       Both         2.00        9.548800     -54.137527
  1 U L       Both         2.00       23.684099    -138.126617
  1 U L       Both         2.00       81.042198    -376.411682
  1 U L       Both         1.00      260.182190     -54.858120

  2 U-s       Both         2.00        1.051300      45.001518
  2 U-s       Both         2.00        1.213600    -142.817215
  2 U-s       Both         2.00        1.592900     280.339935
  2 U-s       Both         2.00        2.275500    -305.931091
  2 U-s       Both         2.00        3.415900     275.888336
  2 U-s       Both         2.00        5.045500    -126.195869
  2 U-s       Both         1.00        8.101800      58.640396
  2 U-s       Both         0.00       29.929399       6.276546

  3 U-p       Both         2.00        0.344600       0.195629
  3 U-p       Both         2.00        1.012200     -60.526897
  3 U-p       Both         2.00        1.214700     201.290909
  3 U-p       Both         2.00        1.657500    -254.737305
  3 U-p       Both         2.00        2.401100     231.821091
  3 U-p       Both         2.00        3.468300    -120.335831
  3 U-p       Both         1.00        4.719000      43.356445
  3 U-p       Both         0.00       14.244800       5.935587

  4 U-d       Both         2.00        0.886000      -1.356637
  4 U-d       Both         2.00        2.429700      49.747395
  4 U-d       Both         2.00        3.090300    -160.286331
  4 U-d       Both         2.00        4.450600     325.697723
  4 U-d       Both         2.00        6.859600    -339.073059
  4 U-d       Both         2.00       10.511800     199.774551
  4 U-d       Both         1.00        8.927800      40.334297
  4 U-d       Both         0.00       30.412600       7.639982

  5 U-f       Both         2.00        0.743000      37.605412
  5 U-f       Both         2.00        0.934900     -24.430166
  5 U-f       Both         2.00        0.937100     -38.516579
  5 U-f       Both         2.00        1.350500      60.979286
  5 U-f       Both         2.00        2.453200     -10.033807
  5 U-f       Both         2.00        3.990500      52.056168
  5 U-f       Both         1.00        8.445300      39.917824
  5 U-f       Both         0.00       19.776100       5.474869

                                 NWChem SCF Module
                                 -----------------


                                  Pb, scalar ECP



  ao basis        = "ao basis"
  functions       =    36
  atoms           =     1
  closed shells   =     7
  open shells     =     0
  charge          =   0.00
  wavefunction    = RHF 
  input vectors   = atomic
  output vectors  = ./Pb.movecs
  use symmetry    = F
  symmetry adapt  = F


 Summary of "ao basis" -> "ao basis" (cartesian)
 ------------------------------------------------------------------------------
       Tag                 Description            Shells   Functions and Types
 ---------------- ------------------------------  ------  ---------------------
 Pb                        crenbl ecp               10       36   3s3p4d



 Forming initial guess at       0.0s


      Superposition of Atomic Density Guess
      -------------------------------------

 Sum of atomic energies:         -61.46731401

      Non-variational initial energy
      ------------------------------

 Total energy =     -59.555257
 1-e energy   =    -107.155490
 2-e energy   =      47.600232
 HOMO         =      -0.064198
 LUMO         =      -0.064198


 Starting SCF solution at       0.0s



 ----------------------------------------------
         Quadratically convergent ROHF

 Convergence threshold     :          1.000E-04
 Maximum no. of iterations :           30
 Final Fock-matrix accuracy:          1.000E-07
 ----------------------------------------------


 #quartets = 1.540D+03 #integrals = 4.255D+04 #direct =  0.0% #cached =100.0%


 Integral file          = ./Pb.aoints.0
 Record size in doubles =  65536        No. of integs per rec  =  43688
 Max. records in memory =      3        Max. records in file   = 457568
 No. of bits per label  =      8        No. of bits per value  =     64


File balance: exchanges=     0  moved=     0  time=   0.0


              iter       energy          gnorm     gmax       time
             ----- ------------------- --------- --------- --------
                 1      -59.6940869744  1.56D-01  9.75D-02      0.0
                 2      -59.6983030400  1.19D-02  4.02D-03      0.0
                 3      -59.6983171295  1.03D-04  4.42D-05      0.0
                 4      -59.6983171305  4.83D-06  2.01D-06      0.0


       Final RHF  results 
       ------------------ 

         Total SCF energy =    -59.698317130518
      One-electron energy =   -107.065505380814
      Two-electron energy =     47.367188250296
 Nuclear repulsion energy =      0.000000000000

        Time for solution =      0.0s


             Final eigenvalues
             -----------------

              1      
    1   -1.0894
    2   -1.0894
    3   -1.0727
    4   -1.0727
    5   -1.0674
    6   -0.5712
    7   -0.2026
    8   -0.0021
    9   -0.0021
   10    0.0924
   11    0.1755
   12    0.1755
   13    0.1875
   14    0.1875
   15    0.1926
   16    0.3276
   17    0.3276

                       ROHF Final Molecular Orbital Analysis
                       -------------------------------------

 Vector    1  Occ=2.000000D+00  E=-1.089417D+00
              MO Center=  3.4D-18,  4.6D-17, -9.9D-19, r^2= 5.5D-01
   Bfn.  Coefficient  Atom+Function         Bfn.  Coefficient  Atom+Function  
  ----- ------------  ---------------      ----- ------------  ---------------
    16     -0.493650  1 Pb dyy               13      0.490344  1 Pb dxx        
    22     -0.393362  1 Pb dyy               19      0.390728  1 Pb dxx        

 Vector    2  Occ=2.000000D+00  E=-1.089417D+00
              MO Center=  5.7D-17, -1.6D-17, -4.5D-18, r^2= 5.5D-01
   Bfn.  Coefficient  Atom+Function         Bfn.  Coefficient  Atom+Function  
  ----- ------------  ---------------      ----- ------------  ---------------
    14      0.983989  1 Pb dxy               20      0.784087  1 Pb dxy        
    26      0.195984  1 Pb dxy        

 Vector    3  Occ=2.000000D+00  E=-1.072747D+00
              MO Center= -2.3D-16, -5.2D-18, -1.6D-16, r^2= 5.5D-01
   Bfn.  Coefficient  Atom+Function         Bfn.  Coefficient  Atom+Function  
  ----- ------------  ---------------      ----- ------------  ---------------
    15      0.975986  1 Pb dxz               21      0.767155  1 Pb dxz        
    27      0.202533  1 Pb dxz        

 Vector    4  Occ=2.000000D+00  E=-1.072747D+00
              MO Center= -3.3D-18,  5.1D-16,  3.1D-17, r^2= 5.5D-01
   Bfn.  Coefficient  Atom+Function         Bfn.  Coefficient  Atom+Function  
  ----- ------------  ---------------      ----- ------------  ---------------
    17      0.986018  1 Pb dyz               23      0.775040  1 Pb dyz        
    29      0.204615  1 Pb dyz        

 Vector    5  Occ=2.000000D+00  E=-1.067422D+00
              MO Center= -3.9D-17, -2.3D-17, -1.3D-16, r^2= 5.5D-01
   Bfn.  Coefficient  Atom+Function         Bfn.  Coefficient  Atom+Function  
  ----- ------------  ---------------      ----- ------------  ---------------
    18      0.566085  1 Pb dzz               24      0.436310  1 Pb dzz        
    16     -0.285287  1 Pb dyy               13     -0.279516  1 Pb dxx        
    22     -0.230289  1 Pb dyy               19     -0.225770  1 Pb dxx        

 Vector    6  Occ=2.000000D+00  E=-5.711811D-01
              MO Center=  1.4D-17, -4.6D-18, -2.3D-16, r^2= 1.8D+00
   Bfn.  Coefficient  Atom+Function         Bfn.  Coefficient  Atom+Function  
  ----- ------------  ---------------      ----- ------------  ---------------
     2      0.680444  1 Pb s                  1     -0.535156  1 Pb s          
     3      0.503166  1 Pb s          

 Vector    7  Occ=2.000000D+00  E=-2.026332D-01
              MO Center=  7.9D-16, -6.3D-16,  3.8D-16, r^2= 3.7D+00
   Bfn.  Coefficient  Atom+Function         Bfn.  Coefficient  Atom+Function  
  ----- ------------  ---------------      ----- ------------  ---------------
    12      0.591702  1 Pb pz                 9      0.527620  1 Pb pz         

 Vector    8  Occ=0.000000D+00  E=-2.070260D-03
              MO Center= -8.6D-16, -8.3D-17,  1.3D-16, r^2= 4.3D+00
   Bfn.  Coefficient  Atom+Function         Bfn.  Coefficient  Atom+Function  
  ----- ------------  ---------------      ----- ------------  ---------------
    10      0.728518  1 Pb px                 7      0.367317  1 Pb px         

 Vector    9  Occ=0.000000D+00  E=-2.070260D-03
              MO Center= -2.1D-15,  2.3D-14, -7.2D-16, r^2= 4.3D+00
   Bfn.  Coefficient  Atom+Function         Bfn.  Coefficient  Atom+Function  
  ----- ------------  ---------------      ----- ------------  ---------------
    11      0.731041  1 Pb py                 8      0.368589  1 Pb py         

 Vector   10  Occ=0.000000D+00  E= 9.240644D-02
              MO Center= -1.6D-15, -1.5D-14, -1.4D-15, r^2= 1.0D+01
   Bfn.  Coefficient  Atom+Function         Bfn.  Coefficient  Atom+Function  
  ----- ------------  ---------------      ----- ------------  ---------------
     3      3.025537  1 Pb s                  1     -1.119556  1 Pb s          
    31     -0.878562  1 Pb dxx               34     -0.879777  1 Pb dyy        
    30     -0.793971  1 Pb dzz               25     -0.745950  1 Pb dxx        
    28     -0.745622  1 Pb dyy               36     -0.700594  1 Pb dzz        
     2      0.608199  1 Pb s          

 Vector   11  Occ=0.000000D+00  E= 1.755003D-01
              MO Center=  4.5D-15, -9.8D-15, -2.2D-16, r^2= 7.8D+00
   Bfn.  Coefficient  Atom+Function         Bfn.  Coefficient  Atom+Function  
  ----- ------------  ---------------      ----- ------------  ---------------
    34     -0.832186  1 Pb dyy               31      0.825666  1 Pb dxx        
    32      0.715182  1 Pb dxy        

 Vector   12  Occ=0.000000D+00  E= 1.755003D-01
              MO Center= -5.9D-15, -3.0D-16,  5.0D-16, r^2= 7.8D+00
   Bfn.  Coefficient  Atom+Function         Bfn.  Coefficient  Atom+Function  
  ----- ------------  ---------------      ----- ------------  ---------------
    32      1.657841  1 Pb dxy               31     -0.357452  1 Pb dxx        
    34      0.357727  1 Pb dyy               26     -0.163358  1 Pb dxy        
    14     -0.150669  1 Pb dxy        

 Vector   13  Occ=0.000000D+00  E= 1.875211D-01
              MO Center= -2.1D-14,  5.9D-15,  2.7D-15, r^2= 7.8D+00
   Bfn.  Coefficient  Atom+Function         Bfn.  Coefficient  Atom+Function  
  ----- ------------  ---------------      ----- ------------  ---------------
    33      1.715869  1 Pb dxz               35     -0.481778  1 Pb dyz        
    15     -0.168399  1 Pb dxz               27     -0.154712  1 Pb dxz        

 Vector   14  Occ=0.000000D+00  E= 1.875211D-01
              MO Center= -1.1D-15, -3.4D-15, -1.9D-15, r^2= 7.8D+00
   Bfn.  Coefficient  Atom+Function         Bfn.  Coefficient  Atom+Function  
  ----- ------------  ---------------      ----- ------------  ---------------
    35      1.731562  1 Pb dyz               33      0.470228  1 Pb dxz        
    17     -0.169939  1 Pb dyz               29     -0.156127  1 Pb dyz        
    32      0.152485  1 Pb dxy        

 Vector   15  Occ=0.000000D+00  E= 1.926342D-01
              MO Center= -1.2D-15,  1.5D-16, -8.1D-15, r^2= 7.8D+00
   Bfn.  Coefficient  Atom+Function         Bfn.  Coefficient  Atom+Function  
  ----- ------------  ---------------      ----- ------------  ---------------
    36      1.136412  1 Pb dzz                3     -0.597965  1 Pb s          
    34     -0.401164  1 Pb dyy               31     -0.390741  1 Pb dxx        
    33      0.257649  1 Pb dxz                1      0.205031  1 Pb s          
    25      0.203040  1 Pb dxx               28      0.203922  1 Pb dyy        

 Vector   16  Occ=0.000000D+00  E= 3.276340D-01
              MO Center=  4.1D-15,  2.5D-15, -4.4D-16, r^2= 5.4D+00
   Bfn.  Coefficient  Atom+Function         Bfn.  Coefficient  Atom+Function  
  ----- ------------  ---------------      ----- ------------  ---------------
     8      1.419037  1 Pb py                11     -1.161944  1 Pb py         
     7     -0.413698  1 Pb px                10      0.338746  1 Pb px         
     5     -0.182285  1 Pb py         

 Vector   17  Occ=0.000000D+00  E= 3.276340D-01
              MO Center=  1.8D-15, -6.2D-16,  2.0D-15, r^2= 5.4D+00
   Bfn.  Coefficient  Atom+Function         Bfn.  Coefficient  Atom+Function  
  ----- ------------  ---------------      ----- ------------  ---------------
     7      1.413721  1 Pb px                10     -1.157591  1 Pb px         
     8      0.413266  1 Pb py                11     -0.338393  1 Pb py         
     4     -0.181602  1 Pb px         

 Vector   18  Occ=0.000000D+00  E= 3.409992D-01
              MO Center=  2.4D-14, -7.6D-16,  6.4D-15, r^2= 6.0D+00
   Bfn.  Coefficient  Atom+Function         Bfn.  Coefficient  Atom+Function  
  ----- ------------  ---------------      ----- ------------  ---------------
     9      1.420595  1 Pb pz                12     -1.279120  1 Pb pz         
     6     -0.177252  1 Pb pz         

 Vector   19  Occ=0.000000D+00  E= 4.560347D-01
              MO Center= -4.7D-17, -7.4D-17,  2.0D-16, r^2= 7.5D+00
   Bfn.  Coefficient  Atom+Function         Bfn.  Coefficient  Atom+Function  
  ----- ------------  ---------------      ----- ------------  ---------------
     3      9.406618  1 Pb s                 30     -2.741384  1 Pb dzz        
    25     -2.718478  1 Pb dxx               28     -2.718321  1 Pb dyy        
     1     -2.473996  1 Pb s                 31     -1.014246  1 Pb dxx        
    34     -1.014563  1 Pb dyy               36     -0.967777  1 Pb dzz        
    19     -0.548816  1 Pb dxx               22     -0.548910  1 Pb dyy        

 Vector   20  Occ=0.000000D+00  E= 7.577987D-01
              MO Center=  5.2D-16,  2.2D-16, -4.7D-17, r^2= 3.4D+00
   Bfn.  Coefficient  Atom+Function         Bfn.  Coefficient  Atom+Function  
  ----- ------------  ---------------      ----- ------------  ---------------
    26      2.530330  1 Pb dxy               32     -1.051636  1 Pb dxy        
    20     -0.951439  1 Pb dxy               14     -0.421204  1 Pb dxy        
    29     -0.211255  1 Pb dyz        


 center of mass
 --------------
 x =   0.00000000 y =   0.00000000 z =   0.00000000

 moments of inertia (a.u.)
 ------------------
           0.000000000000           0.000000000000           0.000000000000
           0.000000000000           0.000000000000           0.000000000000
           0.000000000000           0.000000000000           0.000000000000

  Mulliken analysis of the total density
  --------------------------------------

    Atom       Charge   Shell Charges
 -----------   ------   -------------------------------------------------------
    1 Pb  14    14.00  -0.54  1.06  0.98 -0.06  0.94  1.12  5.16  4.37  0.94  0.03

       Multipole analysis of the density wrt the origin
       ------------------------------------------------

     L   x y z        total         open         nuclear
     -   - - -        -----         ----         -------
     0   0 0 0     -0.000000      0.000000     14.000000

     1   1 0 0     -0.000000      0.000000      0.000000
     1   0 1 0      0.000000      0.000000      0.000000
     1   0 0 1      0.000000      0.000000      0.000000

     2   2 0 0    -16.219510      0.000000      0.000000
     2   1 1 0     -0.013926      0.000000      0.000000
     2   1 0 1     -0.900745      0.000000      0.000000
     2   0 2 0    -16.146630      0.000000      0.000000
     2   0 1 1     -0.166248      0.000000      0.000000
     2   0 0 2    -26.897419      0.000000      0.000000


 Parallel integral file used       4 records with       0 large values


 Task  times  cpu:        0.0s     wall:        0.1s


                                NWChem Input Module
                                -------------------


 Summary of allocated global arrays
-----------------------------------
  No active global arrays



                         GA Statistics for process    0
                         ------------------------------

       create   destroy   get      put      acc     scatter   gather  read&inc
calls:  169      169     1103     1099     1039        0        0       20     
number of processes/call 0.00e+00 0.00e+00 0.00e+00 0.00e+00 0.00e+00
bytes total:             2.16e+06 6.38e+05 8.77e+05 0.00e+00 0.00e+00 1.60e+02
bytes remote:            3.33e+05 3.26e+04 1.41e+05 0.00e+00 0.00e+00 0.00e+00
Max memory consumed for GA by this process: 98752 bytes

MA_summarize_allocated_blocks: starting scan ...
MA_summarize_allocated_blocks: scan completed: 0 heap blocks, 0 stack blocks
MA usage statistics:

	allocation statistics:
					      heap	     stack
					      ----	     -----
	current number of blocks	         0	         0
	maximum number of blocks	        39	        14
	current total bytes		         0	         0
	maximum total bytes		   1640664	  22509784
	maximum total K-bytes		      1641	     22510
	maximum total M-bytes		         2	        23


                                     CITATION
                                     --------
                Please cite the following reference when publishing
                           results obtained with NWChem:

          E. Aprà, E. J. Bylaska, W. A. de Jong, N. Govind, K. Kowalski,
       T. P. Straatsma, M. Valiev, H. J. J. van Dam, Y. Alexeev, J. Anchell,
       V. Anisimov, F. W. Aquino, R. Atta-Fynn, J. Autschbach, N. P. Bauman,
     J. C. Becca, D. E. Bernholdt, K. Bhaskaran-Nair, S. Bogatko, P. Borowski,
        J. Boschen, J. Brabec, A. Bruner, E. Cauët, Y. Chen, G. N. Chuev,
      C. J. Cramer, J. Daily, M. J. O. Deegan, T. H. Dunning Jr., M. Dupuis,
   K. G. Dyall, G. I. Fann, S. A. Fischer, A. Fonari, H. Früchtl, L. Gagliardi,
      J. Garza, N. Gawande, S. Ghosh, K. Glaesemann, A. W. Götz, J. Hammond,
       V. Helms, E. D. Hermes, K. Hirao, S. Hirata, M. Jacquelin, L. Jensen,
   B. G. Johnson, H. Jónsson, R. A. Kendall, M. Klemm, R. Kobayashi, V. Konkov,
      S. Krishnamoorthy, M. Krishnan, Z. Lin, R. D. Lins, R. J. Littlefield,
      A. J. Logsdail, K. Lopata, W. Ma, A. V. Marenich, J. Martin del Campo,
   D. Mejia-Rodriguez, J. E. Moore, J. M. Mullin, T. Nakajima, D. R. Nascimento,
    J. A. Nichols, P. J. Nichols, J. Nieplocha, A. Otero-de-la-Roza, B. Palmer,
    A. Panyala, T. Pirojsirikul, B. Peng, R. Peverati, J. Pittner, L. Pollack,
   R. M. Richard, P. Sadayappan, G. C. Schatz, W. A. Shelton, D. W. Silverstein,
   D. M. A. Smith, T. A. Soares, D. Song, M. Swart, H. L. Taylor, G. S. Thomas,
            V. Tipparaju, D. G. Truhlar, K. Tsemekhman, T. Van Voorhis,
     Á. Vázquez-Mayagoitia, P. Verma, O. Villa, A. Vishnu, K. D. Vogiatzis,
        D. Wang, J. H. Weare, M. J. Williamson, T. L. Windus, K. Woliński,
        A. T. Wong, Q. Wu, C. Yang, Q. Yu, M. Zacharias, Z. Zhang, Y. Zhao,
                                and R. J. Harrison
                        "NWChem: Past, present, and future
                         J. Chem. Phys. 152, 184102 (2020)
                               doi:10.1063/5.0004997

                                      AUTHORS
                                      -------
     E. Apra, E. J. Bylaska, N. Govind, K. Kowalski, M. Valiev, W. A. de Jong,
      T. P. Straatsma, H. J. J. van Dam, D. Wang, T. L. Windus, N. P. Bauman,
       A. Panyala, J. Hammond, J. Autschbach, K. Bhaskaran-Nair, J. Brabec,
    K. Lopata, S. A. Fischer, S. Krishnamoorthy, M. Jacquelin, W. Ma, M. Klemm,
       O. Villa, Y. Chen, V. Anisimov, F. Aquino, S. Hirata, M. T. Hackler,
           Eric Hermes, L. Jensen, J. E. Moore, J. C. Becca, V. Konjkov,
            D. Mejia-Rodriguez, T. Risthaus, M. Malagoli, A. Marenich,
   A. Otero-de-la-Roza, J. Mullin, P. Nichols, R. Peverati, J. Pittner, Y. Zhao,
        P.-D. Fan, A. Fonari, M. J. Williamson, R. J. Harrison, J. R. Rehr,
      M. Dupuis, D. Silverstein, D. M. A. Smith, J. Nieplocha, V. Tipparaju,
      M. Krishnan, B. E. Van Kuiken, A. Vazquez-Mayagoitia, M. Swart, Q. Wu,
   T. Van Voorhis, A. A. Auer, M. Nooijen, L. D. Crosby, E. Brown, G. Cisneros,
     G. I. Fann, H. Fruchtl, J. Garza, K. Hirao, R. A. Kendall, J. A. Nichols,
       K. Tsemekhman, K. Wolinski, J. Anchell, D. E. Bernholdt, P. Borowski,
       T. Clark, D. Clerc, H. Dachsel, M. J. O. Deegan, K. Dyall, D. Elwood,
      E. Glendening, M. Gutowski, A. C. Hess, J. Jaffe, B. G. Johnson, J. Ju,
        R. Kobayashi, R. Kutteh, Z. Lin, R. Littlefield, X. Long, B. Meng,
      T. Nakajima, S. Niu, L. Pollack, M. Rosing, K. Glaesemann, G. Sandrone,
      M. Stave, H. Taylor, G. Thomas, J. H. van Lenthe, A. T. Wong, Z. Zhang.

 Total times  cpu:        0.0s     wall:        0.1s
