

 Parallel Execution: Process Information
 ==============================================================================
 Rank   Node Name                              NodeID   MyNodeRank  NodeMaster
    0   adf1                                      0          0          0
    1   adf1                                      0          1         -1
    2   adf1                                      0          2         -1
    3   adf1                                      0          3         -1
    4   adf1                                      0          4         -1
    5   adf1                                      0          5         -1
    6   adf1                                      1          0          1
    7   adf1                                      1          1         -1
    8   adf1                                      1          2         -1
    9   adf1                                      1          3         -1
   10   adf1                                      1          4         -1
   11   adf1                                      1          5         -1
 ==============================================================================


May use up to 11697MB of RAM as shared memory on node 0
May use up to 11718MB of RAM as shared memory on node 1

 *******************************************************************************
 *                                                                             *
 *  --------------------------------                                           *
 *   Amsterdam Modeling Suite (AMS)              2021.102                      *
 *  --------------------------------                                           *
 *                                               r95042 2021-06-07             *
 *                                                                             *
 *                                                                             *
 *                              =================                              *
 *                              |               |                              *
 *                              |     A M S     |                              *
 *                              |               |                              *
 *                              =================                              *
 *                                                                             *
 *                                                                             *
 *   Online information and documentation:  https://www.scm.com/support/       *
 *   E-mail:  support@scm.com   info@scm.com                                   *
 *                                                                             *
 *   Scientific publications using AMS results must be properly referenced     *
 *   See the User Manuals (or the web site) for recommended citations          *
 *   The terms and conditions of the End User License Agreement apply to       *
 *   the use of AMS, https://www.scm.com/license-terms/                        *
 *                                                                             *
 **********************  x86_64_linux_intel / intelmpi  ************************
 
 Licensed to: Dr. Miroslav Ilias / Matej Bel University, Department Chemistry, Fac. Natural Sciences / Banska Bystrica / SLOVAKIA
 SCM User ID: u17848
  
 AMS 2021.102  RunTime: Sep04-2021 23:23:48  ShM Nodes: 2  Procs: 12

 AMS jobname: ams
 AMS jobid  : 1754413028

 Start   directory: /home/milias/Work/projects/open-collection/theoretical_chemistry/projects/nmr_diplomovky/derivaty_markerov/derivative_7/ams/nmr_opbe_tz2p-j_good_cosmo-chcl3/tmp.milias.1558.0.noindex/
 Results directory: /home/milias/Work/projects/open-collection/theoretical_chemistry/projects/nmr_diplomovky/derivaty_markerov/derivative_7/ams/nmr_opbe_tz2p-j_good_cosmo-chcl3/der7.nmr_opbe_tz2p-j_good_cosmo-chcl3.results/
 Scratch directory: /tmp/amstmp_ams_kid0.1754413028/


 Communication costs MPI_COMM_WORLD:      2.841 usec per message,   0.0269 usec per 8-byte item
 Communication costs for intra-node:      1.606 usec per message,   0.0130 usec per 8-byte item

 RNG seed: -1882804773 -1328776928 915617889 977704590 -1627765354 134784366 742769102 -833033669



                     *************************************************************************
                     *  ADF 2021.102  RunTime: Sep04-2021 23:23:48  ShM Nodes: 2  Procs: 12  *
                     *************************************************************************
  
       ****************************
       * SINGLE POINT CALCULATION *
       ****************************
 
--------
Geometry
--------
Formula: C12H25O3P
Atoms
  Index Symbol   x (angstrom)   y (angstrom)   z (angstrom)
      1      O     3.37591287    -0.45791577    -0.00221649       adf.R=1.517
      2      P     2.29699306     0.20842948    -1.01437321       adf.R=1.850
      3      O     1.51401719     1.30849198    -0.09765222       adf.R=1.517
      4      O     1.09754956    -0.89737150    -0.87991553       adf.R=1.517
      5      C     0.42139727     0.74770148     0.67297333       adf.R=1.700
      6      C    -0.10186330    -0.38938517    -0.25294988       adf.R=1.700
      7      C     0.96676355     0.23990190     1.99911023       adf.R=1.700
      8      C    -0.57926571     1.85842384     0.91419049       adf.R=1.700
      9      C    -1.01694691     0.11715925    -1.35736995       adf.R=1.700
     10      C    -0.75896457    -1.53514572     0.48847961       adf.R=1.700
     11      H     0.15429310    -0.08118277     2.65211531       adf.R=1.350
     12      H     1.66001079    -0.58809134     1.86044670       adf.R=1.350
     13      H     1.49903431     1.05346561     2.49337606       adf.R=1.350
     14      H    -0.86751550     2.34838559    -0.01400432       adf.R=1.350
     15      H    -1.47579544     1.46236913     1.39504393       adf.R=1.350
     16      H    -0.14335576     2.60560763     1.57830966       adf.R=1.350
     17      H    -1.98500743     0.42366015    -0.96018413       adf.R=1.350
     18      H    -0.57374127     0.96160014    -1.88699481       adf.R=1.350
     19      H    -1.18104001    -0.68892728    -2.07311536       adf.R=1.350
     20      H    -1.62762520    -1.17760817     1.04484840       adf.R=1.350
     21      H    -1.10163839    -2.28478500    -0.22561330       adf.R=1.350
     22      H    -0.06907356    -2.01030445     1.18320527       adf.R=1.350
     23      C     4.76324350    -0.50910508    -0.37390362       adf.R=1.700
     24      C     5.60039668     0.24958989     0.67439774       adf.R=1.700
     25      H     4.49097376    -2.39018321    -1.36039268       adf.R=1.350
     26      H     4.97432746    -2.54154965     0.33053673       adf.R=1.350
     27      C     5.45189082    -0.37065281     2.06147578       adf.R=1.700
     28      C     5.13019091     1.70280676     0.71884718       adf.R=1.700
     29      H     6.16352291    -2.07334500    -0.89790753       adf.R=1.350
     30      C     5.12610540    -1.96437841    -0.58242153       adf.R=1.700
     31      H     4.88307052     0.02387939    -1.32689460       adf.R=1.350
     32      C     7.06921217     0.22606816     0.25264768       adf.R=1.700
     33      H     5.74371101     2.27519482     1.41805033       adf.R=1.350
     34      H     4.09066984     1.77607189     1.04034647       adf.R=1.350
     35      H     5.21592621     2.17359434    -0.26470646       adf.R=1.350
     36      H     5.84117168    -1.39003916     2.09452153       adf.R=1.350
     37      H     4.40530901    -0.39241341     2.36941221       adf.R=1.350
     38      H     6.00878387     0.21883664     2.79356295       adf.R=1.350
     39      H     7.65564437     0.86267879     0.91866439       adf.R=1.350
     40      H     7.19625571     0.60374245    -0.76560763       adf.R=1.350
     41      H     7.49299250    -0.77820352     0.29914983       adf.R=1.350
 
Total System Charge             0.00000
Bonding info available!
 
 
----------------
ADF Engine Input
----------------
 
 Basis
 Type TZ2P-J
 Core None
 End
 Save TAPE10
 XC
 GGA OPBE
 End
 Relativity
 Level None
 End
 Symmetry NOSYM
 Solvation
 Surf Delley
 Solv name=Chloroform cav0=0.0 cav1=0.0067639
 Charged method=CONJ
 C-Mat POT
 SCF VAR ALL
 CSMRSP
 End
 NumericalQuality Good
 

 Title: *** (NO TITLE) ***

 *** adf ***



 ===========================
 A T T A C H E D   F I L E S
 ===========================
  



 ===============================
 M O D E L   P A R A M E T E R S
 ===============================
  
 DENSITY FUNCTIONAL POTENTIAL (scf)
    LDA:                               VWN                                      
    Gradient Corrections:              OPTX PBEc                               == Not Default ==

 SPIN  (restricted / unrestr.)
    Molecule:                          Restricted                               
    Fragments:                         Restricted                               

 OTHER ASPECTS
    Relativistic Corrections:          ---                                     == Not Default ==

    Nuclear Charge Density Model:      Point Charge Nuclei                      
    Core Treatment:                    Frozen Orbital(s)                        

    Hyperfine or Zeeman Interaction:   ---                                      

 SOLVATION
-------------------------------------------

  The Delley construction of COSMO surface surface is calculated

       Division Level for Surface Triangles (NDIV)                  3
       Final Division Level for Triangles (NFDIV)                   1
       Radius of the Solvent (RSOL)                           3.17000 angstr
  Dielectric Constant (EPSL)                                  4.80000

       COSMO equation is solved iteratively-               conjugate-gradient

       Maximun of Iterations for Charges (NCIX)                  1000
       Criterion for Charge convergence (CCNV)                1.0E-08

  COSMO charges included variationally in SCF

       COSMO included at every SCF cycle

  Geometry-dependent empirical factor                         0.00000

  C-Matrix calculated in cspmtx

  In cspmtx, C-Matrix calculated using fitted potential

-------------------------------------------



 Fragment File(s)
 ----------------
 O:
         file : /home/milias/Work/projects/open-collection/theoretical_chemistry/projects/nmr_diplomovky/derivaty_markerov/derivative_7/ams/nmr_opbe_tz2p-j_good_cosmo-chcl3/der7.nmr_opbe_tz2p-j_good_cosmo-chcl3.results/t21.4DC6E62A.O
         jobid: 0
         title: Oxygen (TZ2P-J)
 P:
         file : /home/milias/Work/projects/open-collection/theoretical_chemistry/projects/nmr_diplomovky/derivaty_markerov/derivative_7/ams/nmr_opbe_tz2p-j_good_cosmo-chcl3/der7.nmr_opbe_tz2p-j_good_cosmo-chcl3.results/t21.11A21DCE.P
         jobid: 0
         title: Phosphorus (TZ2P-J)
 C:
         file : /home/milias/Work/projects/open-collection/theoretical_chemistry/projects/nmr_diplomovky/derivaty_markerov/derivative_7/ams/nmr_opbe_tz2p-j_good_cosmo-chcl3/der7.nmr_opbe_tz2p-j_good_cosmo-chcl3.results/t21.401AE3AB.C
         jobid: 0
         title: Carbon (TZ2P-J)
 H:
         file : /home/milias/Work/projects/open-collection/theoretical_chemistry/projects/nmr_diplomovky/derivaty_markerov/derivative_7/ams/nmr_opbe_tz2p-j_good_cosmo-chcl3/der7.nmr_opbe_tz2p-j_good_cosmo-chcl3.results/t21.61D44761.H
         jobid: 0
         title: Hydrogen (TZ2P-J)



 ===============
 G E O M E T R Y  ***  3D  Molecule  ***
 ===============
  

 ATOMS
 =====                            X Y Z                    CHARGE                     RADIUS
                                (Angstrom)             Nucl     +Core       At.Mass (Angstrom)
                       --------------------------    ----------------       ------- ----------
    1  O               3.3759   -0.4579   -0.0022      8.00      8.00       15.9949    1.5170
    2  P               2.2970    0.2084   -1.0144     15.00     15.00       30.9738    1.8500
    3  O               1.5140    1.3085   -0.0977      8.00      8.00       15.9949    1.5170
    4  O               1.0975   -0.8974   -0.8799      8.00      8.00       15.9949    1.5170
    5  C               0.4214    0.7477    0.6730      6.00      6.00       12.0000    1.7000
    6  C              -0.1019   -0.3894   -0.2529      6.00      6.00       12.0000    1.7000
    7  C               0.9668    0.2399    1.9991      6.00      6.00       12.0000    1.7000
    8  C              -0.5793    1.8584    0.9142      6.00      6.00       12.0000    1.7000
    9  C              -1.0169    0.1172   -1.3574      6.00      6.00       12.0000    1.7000
   10  C              -0.7590   -1.5351    0.4885      6.00      6.00       12.0000    1.7000
   11  H               0.1543   -0.0812    2.6521      1.00      1.00        1.0078    1.3500
   12  H               1.6600   -0.5881    1.8604      1.00      1.00        1.0078    1.3500
   13  H               1.4990    1.0535    2.4934      1.00      1.00        1.0078    1.3500
   14  H              -0.8675    2.3484   -0.0140      1.00      1.00        1.0078    1.3500
   15  H              -1.4758    1.4624    1.3950      1.00      1.00        1.0078    1.3500
   16  H              -0.1434    2.6056    1.5783      1.00      1.00        1.0078    1.3500
   17  H              -1.9850    0.4237   -0.9602      1.00      1.00        1.0078    1.3500
   18  H              -0.5737    0.9616   -1.8870      1.00      1.00        1.0078    1.3500
   19  H              -1.1810   -0.6889   -2.0731      1.00      1.00        1.0078    1.3500
   20  H              -1.6276   -1.1776    1.0448      1.00      1.00        1.0078    1.3500
   21  H              -1.1016   -2.2848   -0.2256      1.00      1.00        1.0078    1.3500
   22  H              -0.0691   -2.0103    1.1832      1.00      1.00        1.0078    1.3500
   23  C               4.7632   -0.5091   -0.3739      6.00      6.00       12.0000    1.7000
   24  C               5.6004    0.2496    0.6744      6.00      6.00       12.0000    1.7000
   25  H               4.4910   -2.3902   -1.3604      1.00      1.00        1.0078    1.3500
   26  H               4.9743   -2.5415    0.3305      1.00      1.00        1.0078    1.3500
   27  C               5.4519   -0.3707    2.0615      6.00      6.00       12.0000    1.7000
   28  C               5.1302    1.7028    0.7188      6.00      6.00       12.0000    1.7000
   29  H               6.1635   -2.0733   -0.8979      1.00      1.00        1.0078    1.3500
   30  C               5.1261   -1.9644   -0.5824      6.00      6.00       12.0000    1.7000
   31  H               4.8831    0.0239   -1.3269      1.00      1.00        1.0078    1.3500
   32  C               7.0692    0.2261    0.2526      6.00      6.00       12.0000    1.7000
   33  H               5.7437    2.2752    1.4181      1.00      1.00        1.0078    1.3500
   34  H               4.0907    1.7761    1.0403      1.00      1.00        1.0078    1.3500
   35  H               5.2159    2.1736   -0.2647      1.00      1.00        1.0078    1.3500
   36  H               5.8412   -1.3900    2.0945      1.00      1.00        1.0078    1.3500
   37  H               4.4053   -0.3924    2.3694      1.00      1.00        1.0078    1.3500
   38  H               6.0088    0.2188    2.7936      1.00      1.00        1.0078    1.3500
   39  H               7.6556    0.8627    0.9187      1.00      1.00        1.0078    1.3500
   40  H               7.1963    0.6037   -0.7656      1.00      1.00        1.0078    1.3500
   41  H               7.4930   -0.7782    0.2991      1.00      1.00        1.0078    1.3500


 FRAGMENTS
 =========                                     Atoms in this Fragment     Cart. coord.s (Angstrom)
                                               -------------------------------------------------------
    1  O                                                 1  O            3.3759   -0.4579   -0.0022
    2  O                                                 3  O            1.5140    1.3085   -0.0977
    3  O                                                 4  O            1.0975   -0.8974   -0.8799
    4  P                                                 2  P            2.2970    0.2084   -1.0144
    5  C                                                 5  C            0.4214    0.7477    0.6730
    6  C                                                 6  C           -0.1019   -0.3894   -0.2529
    7  C                                                 7  C            0.9668    0.2399    1.9991
    8  C                                                 8  C           -0.5793    1.8584    0.9142
    9  C                                                 9  C           -1.0169    0.1172   -1.3574
   10  C                                                10  C           -0.7590   -1.5351    0.4885
   11  C                                                23  C            4.7632   -0.5091   -0.3739
   12  C                                                24  C            5.6004    0.2496    0.6744
   13  C                                                27  C            5.4519   -0.3707    2.0615
   14  C                                                28  C            5.1302    1.7028    0.7188
   15  C                                                30  C            5.1261   -1.9644   -0.5824
   16  C                                                32  C            7.0692    0.2261    0.2526
   17  H                                                11  H            0.1543   -0.0812    2.6521
   18  H                                                12  H            1.6600   -0.5881    1.8604
   19  H                                                13  H            1.4990    1.0535    2.4934
   20  H                                                14  H           -0.8675    2.3484   -0.0140
   21  H                                                15  H           -1.4758    1.4624    1.3950
   22  H                                                16  H           -0.1434    2.6056    1.5783
   23  H                                                17  H           -1.9850    0.4237   -0.9602
   24  H                                                18  H           -0.5737    0.9616   -1.8870
   25  H                                                19  H           -1.1810   -0.6889   -2.0731
   26  H                                                20  H           -1.6276   -1.1776    1.0448
   27  H                                                21  H           -1.1016   -2.2848   -0.2256
   28  H                                                22  H           -0.0691   -2.0103    1.1832
   29  H                                                25  H            4.4910   -2.3902   -1.3604
   30  H                                                26  H            4.9743   -2.5415    0.3305
   31  H                                                29  H            6.1635   -2.0733   -0.8979
   32  H                                                31  H            4.8831    0.0239   -1.3269
   33  H                                                33  H            5.7437    2.2752    1.4181
   34  H                                                34  H            4.0907    1.7761    1.0403
   35  H                                                35  H            5.2159    2.1736   -0.2647
   36  H                                                36  H            5.8412   -1.3900    2.0945
   37  H                                                37  H            4.4053   -0.3924    2.3694
   38  H                                                38  H            6.0088    0.2188    2.7936
   39  H                                                39  H            7.6556    0.8627    0.9187
   40  H                                                40  H            7.1963    0.6037   -0.7656
   41  H                                                41  H            7.4930   -0.7782    0.2991



 =====================================
 S Y M M E T R Y ,   E L E C T R O N S
 =====================================
  
 Symmetry: NOSYM

 Irreducible Representations, including subspecies
 -------------------------------------------------
 A


 Configuration of Valence Electrons
 ==================================
 ( determined in the SCF procedure )

 Total:   136

 Net Charge: 0 (Nuclei minus Electrons)

 Aufbau principle for MO occupations will be applied through SCF cycle no.     150
 Thereafter, the program will assign electrons to MOs that are spatially
 similar to the occupied MOs in a "reference" cycle ("KeepOrbitals").
 The reference cycle is always the PREVIOUS cycle: it will evolve with
 the SCF procedure.
1
 ***************************************************************************************************



                                      ****************************************
                                      *  B U I L D : (Fragments, Functions)  *
                                      ****************************************
  

 Total nr. of (C)SFOs (summation over all irreps) :   911

 Specify PRINT SFO in the input file to get a full list

 Nr. of SFOs for ir.rep.           A :   911



 ================================
 (Slater-type)  F U N C T I O N S  ***  (Basis and Fit)  ***
 ================================
  

 Atom Type    1  (O)
 ==============

 Valence Basis Sets:  15
 -----------------------
   1 S  800.000000
   1 S  160.000000
   1 S   40.000000
   1 S   16.000000
   1 S    9.800000
   1 S    6.800000
   2 S    7.580000
   2 S    2.880000
   2 S    1.720000
   2 P    9.800000
   2 P    4.080000
   2 P    2.080000
   2 P    1.120000
   3 D    2.000000
   4 F    3.000000

 Atom Type    2  (P)
 ==============

 Valence Basis Sets:  19
 -----------------------
   1 S 1500.000000
   1 S  300.000000
   1 S   75.000000
   1 S   30.000000
   1 S   18.000000
   1 S   13.350000
   2 S    5.600000
   2 S    4.050000
   2 P   18.000000
   2 P    7.450000
   2 P    4.100000
   3 S    2.700000
   3 S    1.850000
   3 S    1.300000
   3 P    2.300000
   3 P    1.350000
   3 P    0.850000
   3 D    1.900000
   4 F    2.000000

 Atom Type    3  (C)
 ==============

 Valence Basis Sets:  15
 -----------------------
   1 S  600.000000
   1 S  120.000000
   1 S   30.000000
   1 S   12.000000
   1 S    7.680000
   1 S    5.000000
   2 S    1.280000
   2 S    2.100000
   2 S    4.600000
   2 P    7.680000
   2 P    0.820000
   2 P    1.480000
   2 P    2.940000
   3 D    2.200000
   4 F    3.300000

 Atom Type    4  (H)
 ==============

 Valence Basis Sets:   9
 -----------------------
   1 S  100.000000
   1 S   25.000000
   1 S    7.500000
   1 S    3.000000
   1 S    0.690000
   1 S    0.920000
   1 S    1.580000
   2 P    1.250000
   3 D    2.500000


 BAS: List of all Elementary Cartesian Basis Functions
 =====================================================

 The numbering in the list below (to the right of the function characteristics) is referred
 to in print-outs of MO eigenvectors and Mulliken populations in the BAS representation
 (as contrasted to the SFO representation).

 Notes:
 1. The functions are characterized by a polynomial prefactor (powers of x,y,z and r) and
    an exponential decay factor alpha.
 2. Since the basis sets are specific for an atom TYPE, the individual functions occur on
    all atoms of that type.
 3. The word 'Core' in the left margin signals that it is a Core Function (CF) : not a
    degree of freedom in the valence set, but only used to ensure orthogonalization of
    the other valence basis functions on the frozen Core Orbitals.


 (power of) X  Y  Z  R     Alpha  on Atom
            ==========     =====     ==========

 O                                    1    2    3
                                  ---------------------------------------------------------------------------
            0  0  0  0   800.000      1   38   75
            0  0  0  0   160.000      2   39   76
            0  0  0  0    40.000      3   40   77
            0  0  0  0    16.000      4   41   78
            0  0  0  0     9.800      5   42   79
            0  0  0  0     6.800      6   43   80
            0  0  0  1     7.580      7   44   81
            0  0  0  1     2.880      8   45   82
            0  0  0  1     1.720      9   46   83
            1  0  0  0     9.800     10   47   84
            0  1  0  0     9.800     11   48   85
            0  0  1  0     9.800     12   49   86
            1  0  0  0     4.080     13   50   87
            0  1  0  0     4.080     14   51   88
            0  0  1  0     4.080     15   52   89
            1  0  0  0     2.080     16   53   90
            0  1  0  0     2.080     17   54   91
            0  0  1  0     2.080     18   55   92
            1  0  0  0     1.120     19   56   93
            0  1  0  0     1.120     20   57   94
            0  0  1  0     1.120     21   58   95
            2  0  0  0     2.000     22   59   96
            1  1  0  0     2.000     23   60   97
            1  0  1  0     2.000     24   61   98
            0  2  0  0     2.000     25   62   99
            0  1  1  0     2.000     26   63  100
            0  0  2  0     2.000     27   64  101
            3  0  0  0     3.000     28   65  102
            2  1  0  0     3.000     29   66  103
            2  0  1  0     3.000     30   67  104
            1  2  0  0     3.000     31   68  105
            1  1  1  0     3.000     32   69  106
            1  0  2  0     3.000     33   70  107
            0  3  0  0     3.000     34   71  108
            0  2  1  0     3.000     35   72  109
            0  1  2  0     3.000     36   73  110
            0  0  3  0     3.000     37   74  111

 P                                    4
                                  ---------------------------------------------------------------------------
            0  0  0  0  1500.000    112
            0  0  0  0   300.000    113
            0  0  0  0    75.000    114
            0  0  0  0    30.000    115
            0  0  0  0    18.000    116
            0  0  0  0    13.350    117
            0  0  0  1     5.600    118
            0  0  0  1     4.050    119
            1  0  0  0    18.000    120
            0  1  0  0    18.000    121
            0  0  1  0    18.000    122
            1  0  0  0     7.450    123
            0  1  0  0     7.450    124
            0  0  1  0     7.450    125
            1  0  0  0     4.100    126
            0  1  0  0     4.100    127
            0  0  1  0     4.100    128
            0  0  0  2     2.700    129
            0  0  0  2     1.850    130
            0  0  0  2     1.300    131
            1  0  0  1     2.300    132
            0  1  0  1     2.300    133
            0  0  1  1     2.300    134
            1  0  0  1     1.350    135
            0  1  0  1     1.350    136
            0  0  1  1     1.350    137
            1  0  0  1     0.850    138
            0  1  0  1     0.850    139
            0  0  1  1     0.850    140
            2  0  0  0     1.900    141
            1  1  0  0     1.900    142
            1  0  1  0     1.900    143
            0  2  0  0     1.900    144
            0  1  1  0     1.900    145
            0  0  2  0     1.900    146
            3  0  0  0     2.000    147
            2  1  0  0     2.000    148
            2  0  1  0     2.000    149
            1  2  0  0     2.000    150
            1  1  1  0     2.000    151
            1  0  2  0     2.000    152
            0  3  0  0     2.000    153
            0  2  1  0     2.000    154
            0  1  2  0     2.000    155
            0  0  3  0     2.000    156

 C                                    5    6    7    8    9   10   11   12   13   14   15   16
                                  ---------------------------------------------------------------------------
            0  0  0  0   600.000    157  194  231  268  305  342  379  416  453  490  527  564
            0  0  0  0   120.000    158  195  232  269  306  343  380  417  454  491  528  565
            0  0  0  0    30.000    159  196  233  270  307  344  381  418  455  492  529  566
            0  0  0  0    12.000    160  197  234  271  308  345  382  419  456  493  530  567
            0  0  0  0     7.680    161  198  235  272  309  346  383  420  457  494  531  568
            0  0  0  0     5.000    162  199  236  273  310  347  384  421  458  495  532  569
            0  0  0  1     1.280    163  200  237  274  311  348  385  422  459  496  533  570
            0  0  0  1     2.100    164  201  238  275  312  349  386  423  460  497  534  571
            0  0  0  1     4.600    165  202  239  276  313  350  387  424  461  498  535  572
            1  0  0  0     7.680    166  203  240  277  314  351  388  425  462  499  536  573
            0  1  0  0     7.680    167  204  241  278  315  352  389  426  463  500  537  574
            0  0  1  0     7.680    168  205  242  279  316  353  390  427  464  501  538  575
            1  0  0  0     0.820    169  206  243  280  317  354  391  428  465  502  539  576
            0  1  0  0     0.820    170  207  244  281  318  355  392  429  466  503  540  577
            0  0  1  0     0.820    171  208  245  282  319  356  393  430  467  504  541  578
            1  0  0  0     1.480    172  209  246  283  320  357  394  431  468  505  542  579
            0  1  0  0     1.480    173  210  247  284  321  358  395  432  469  506  543  580
            0  0  1  0     1.480    174  211  248  285  322  359  396  433  470  507  544  581
            1  0  0  0     2.940    175  212  249  286  323  360  397  434  471  508  545  582
            0  1  0  0     2.940    176  213  250  287  324  361  398  435  472  509  546  583
            0  0  1  0     2.940    177  214  251  288  325  362  399  436  473  510  547  584
            2  0  0  0     2.200    178  215  252  289  326  363  400  437  474  511  548  585
            1  1  0  0     2.200    179  216  253  290  327  364  401  438  475  512  549  586
            1  0  1  0     2.200    180  217  254  291  328  365  402  439  476  513  550  587
            0  2  0  0     2.200    181  218  255  292  329  366  403  440  477  514  551  588
            0  1  1  0     2.200    182  219  256  293  330  367  404  441  478  515  552  589
            0  0  2  0     2.200    183  220  257  294  331  368  405  442  479  516  553  590
            3  0  0  0     3.300    184  221  258  295  332  369  406  443  480  517  554  591
            2  1  0  0     3.300    185  222  259  296  333  370  407  444  481  518  555  592
            2  0  1  0     3.300    186  223  260  297  334  371  408  445  482  519  556  593
            1  2  0  0     3.300    187  224  261  298  335  372  409  446  483  520  557  594
            1  1  1  0     3.300    188  225  262  299  336  373  410  447  484  521  558  595
            1  0  2  0     3.300    189  226  263  300  337  374  411  448  485  522  559  596
            0  3  0  0     3.300    190  227  264  301  338  375  412  449  486  523  560  597
            0  2  1  0     3.300    191  228  265  302  339  376  413  450  487  524  561  598
            0  1  2  0     3.300    192  229  266  303  340  377  414  451  488  525  562  599
            0  0  3  0     3.300    193  230  267  304  341  378  415  452  489  526  563  600

 H                                   17   18   19   20   21   22   23   24   25   26   27   28   29   30   31
                                     32   33   34   35   36   37   38   39   40   41
                                  ---------------------------------------------------------------------------
            0  0  0  0   100.000    601  617  633  649  665  681  697  713  729  745  761  777  793  809  825
                                    841  857  873  889  905  921  937  953  969  985
            0  0  0  0    25.000    602  618  634  650  666  682  698  714  730  746  762  778  794  810  826
                                    842  858  874  890  906  922  938  954  970  986
            0  0  0  0     7.500    603  619  635  651  667  683  699  715  731  747  763  779  795  811  827
                                    843  859  875  891  907  923  939  955  971  987
            0  0  0  0     3.000    604  620  636  652  668  684  700  716  732  748  764  780  796  812  828
                                    844  860  876  892  908  924  940  956  972  988
            0  0  0  0     0.690    605  621  637  653  669  685  701  717  733  749  765  781  797  813  829
                                    845  861  877  893  909  925  941  957  973  989
            0  0  0  0     0.920    606  622  638  654  670  686  702  718  734  750  766  782  798  814  830
                                    846  862  878  894  910  926  942  958  974  990
            0  0  0  0     1.580    607  623  639  655  671  687  703  719  735  751  767  783  799  815  831
                                    847  863  879  895  911  927  943  959  975  991
            1  0  0  0     1.250    608  624  640  656  672  688  704  720  736  752  768  784  800  816  832
                                    848  864  880  896  912  928  944  960  976  992
            0  1  0  0     1.250    609  625  641  657  673  689  705  721  737  753  769  785  801  817  833
                                    849  865  881  897  913  929  945  961  977  993
            0  0  1  0     1.250    610  626  642  658  674  690  706  722  738  754  770  786  802  818  834
                                    850  866  882  898  914  930  946  962  978  994
            2  0  0  0     2.500    611  627  643  659  675  691  707  723  739  755  771  787  803  819  835
                                    851  867  883  899  915  931  947  963  979  995
            1  1  0  0     2.500    612  628  644  660  676  692  708  724  740  756  772  788  804  820  836
                                    852  868  884  900  916  932  948  964  980  996
            1  0  1  0     2.500    613  629  645  661  677  693  709  725  741  757  773  789  805  821  837
                                    853  869  885  901  917  933  949  965  981  997
            0  2  0  0     2.500    614  630  646  662  678  694  710  726  742  758  774  790  806  822  838
                                    854  870  886  902  918  934  950  966  982  998
            0  1  1  0     2.500    615  631  647  663  679  695  711  727  743  759  775  791  807  823  839
                                    855  871  887  903  919  935  951  967  983  999
            0  0  2  0     2.500    616  632  648  664  680  696  712  728  744  760  776  792  808  824  840
                                    856  872  888  904  920  936  952  968  984 1000

 Total number of charge fitting functions (nprimf)      5494
 Total number of Cartesian basis functions (naos)       1000
 Total number of Cartesian core functions  (ncos)          0

1
 ***************************************************************************************************



                                              ***********************
                                              *  T E C H N I C A L  *
                                              ***********************
  



 =============================================================
 P A R A L L E L I Z A T I O N  and  V E C T O R I Z A T I O N
 =============================================================
  
 Nr of parallel processes:                               12
 Maximum vector length in NumInt loops:                 128



 =====================
 S C F   U P D A T E S
 =====================
  
 Max. nr. of cycles:                               300
 Convergence criterion:                              0.0000010000
   secondary criterion:                              0.0010000000

 Mix parameter (when DIIS does not apply):           0.2000000000
 Mixed ADIIS+SDIIS will be used                  
    Max number of expansion vectors:                10
    Pure ADIIS when Max([F,P]) is above              0.1000000000
    Pure SDIIS when Max([F,P]) is below              0.0010000000
 Automatic ElectronSmearing (in case of problematic SCF convergence) disabled



 =================
 P R E C I S I O N  ***  (General: NumInt, NeglectFunctionTails, ...)  ***
 =================
  

 NumInt:           Target precision:                 6.0000000000
 -------           Initial precision:                6.0000000000
                   Min. precision (optimization):    6.0000000000

 Neglect Functions:          Basis functions:        0.1000000000E-07
 ------------------          Fit functions:          0.1000000000E-07



 ===========================
 L I N E A R   S C A L I N G
 ===========================
  

 Cut-off radii density fit:                        0.1000000000E-09
 Overlap cut-off criterion AO matrix elements:     0.1000000000E-07
 Cut-offs for Coulomb potential and fitted density:0.1000000000E-09
 Cut-off criterion for Coulomb multipole terms:    0.1000000000E-09
 Progressive Convergence parameter:                 0.000000000    
1
 ***************************************************************************************************



                                            ***************************
                                            *  C O M P U T A T I O N  *
                                            ***************************
  

 Number of elements of the density matrix on this node (used, total):     41692    500500



 ===========================================
 Numerical Integration : Fuzzy Cells (Becke)
 ===========================================
  
 Becke grid quality: GOOD           
  
 Lebedev angular grid order:             min:  11 max:  31
 Nr. of radial points:                   min: 112 max: 222

 Total nr. of points:    1257378
 Nr. of blocks:             9824
 Block length:               128
 Nr. of dummy points:         94


 Test of Precision of the Numerical Integration Grid
 ===================================================

 Integral of the Total Core Density:                   0.00000000000000


 -------------------------------------------
  COSMO surface
  Area             =          977.889
  Volume           =         2233.188
  Number of Points =         2309
 -------------------------------------------



 ========================
 Density Fitting (zlmFit)
 ========================
  
 ZlmFit Fit Quality: GOOD           
  
 Max L-expansion:                        min:   8 max:   9
 Nr. of radial interpolation points:     min: 180 max: 378



 =====
 S C F  ***  ScaSCF  ***
 =====
  
 Initial density matrix is calculated as sum of fragments

 CYCLE    1
 SCF Error: norm([F,P])=     10.506544297519, max([F,P])=      1.060129950650
 orbitals (Q,E):
 ---------------
 A :59...78          ( 2.00    -0.4957)  ( 2.00    -0.4908)  ( 2.00    -0.4891)  ( 2.00    -0.4530)
                     ( 2.00    -0.4477)  ( 2.00    -0.4443)  ( 2.00    -0.4371)  ( 2.00    -0.4265)
                     ( 2.00    -0.3981)  ( 2.00    -0.3060)  ( 0.00    -0.0937)  ( 0.00    -0.0822)
                     ( 0.00    -0.0773)  ( 0.00    -0.0746)  ( 0.00    -0.0696)  ( 0.00    -0.0488)
                     ( 0.00    -0.0446)  ( 0.00    -0.0434)  ( 0.00    -0.0399)  ( 0.00    -0.0368)

 CYCLE    2
   MIX coefficients:  0.8000  0.2000
 SCF Error: norm([F,P])=      1.710345147686, max([F,P])=      0.191062541818
 orbitals (Q,E):
 ---------------
 A :59...69          ( 2.00    -0.4275)  ( 2.00    -0.4161)  ( 2.00    -0.4138)  ( 2.00    -0.3923)
                     ( 2.00    -0.3882)  ( 2.00    -0.3835)  ( 2.00    -0.3776)  ( 2.00    -0.3632)
                     ( 2.00    -0.3341)  ( 2.00    -0.2796)  ( 0.00    -0.0669)

 CYCLE    3
  SDIIS (wt  0.000): -1.0463  2.0463
 A-DIIS (wt  1.000):  0.0000  1.0000
  DIIS coefficients:  0.0000  1.0000
 SCF Error: norm([F,P])=      0.914575388012, max([F,P])=      0.097972281218
 orbitals (Q,E):
 ---------------
 A :59...69          ( 2.00    -0.2367)  ( 2.00    -0.2214)  ( 2.00    -0.2178)  ( 2.00    -0.2130)
                     ( 2.00    -0.2005)  ( 2.00    -0.1900)  ( 2.00    -0.1856)  ( 2.00    -0.1744)
                     ( 2.00    -0.1647)  ( 2.00    -0.1494)  ( 0.00     0.0102)

 CYCLE    4
  SDIIS (wt  0.000):  0.1149  0.4446  0.4405
 A-DIIS (wt  1.000):  0.0000  0.6622  0.3378
  DIIS coefficients:  0.0000  0.6622  0.3378
 SCF Error: norm([F,P])=      1.355832275338, max([F,P])=      0.161557175765
 orbitals (Q,E):
 ---------------
 A :59...69          ( 2.00    -0.2989)  ( 2.00    -0.2866)  ( 2.00    -0.2818)  ( 2.00    -0.2777)
                     ( 2.00    -0.2739)  ( 2.00    -0.2651)  ( 2.00    -0.2610)  ( 2.00    -0.2490)
                     ( 2.00    -0.2247)  ( 2.00    -0.2014)  ( 0.00    -0.0022)

 CYCLE    5
  SDIIS (wt  0.776):  0.0690  0.1770  0.1335  0.6205
 A-DIIS (wt  0.224):  0.0000  0.0000  0.0000  1.0000
  DIIS coefficients:  0.0536  0.1374  0.1036  0.7055
 SCF Error: norm([F,P])=      0.208639854863, max([F,P])=      0.023157974933
 orbitals (Q,E):
 ---------------
 A :59...69          ( 2.00    -0.3117)  ( 2.00    -0.2940)  ( 2.00    -0.2894)  ( 2.00    -0.2880)
                     ( 2.00    -0.2837)  ( 2.00    -0.2739)  ( 2.00    -0.2694)  ( 2.00    -0.2541)
                     ( 2.00    -0.2288)  ( 2.00    -0.2059)  ( 0.00    -0.0067)

 CYCLE    6
  SDIIS (wt  0.796):  0.0170  0.0531  0.0191  0.4563  0.4545
 A-DIIS (wt  0.204):  0.0000  0.0000  0.0000  0.2591  0.7409
  DIIS coefficients:  0.0135  0.0423  0.0152  0.4161  0.5129
 SCF Error: norm([F,P])=      0.131895504104, max([F,P])=      0.021176573519
 orbitals (Q,E):
 ---------------
 A :59...69          ( 2.00    -0.3104)  ( 2.00    -0.2946)  ( 2.00    -0.2899)  ( 2.00    -0.2866)
                     ( 2.00    -0.2830)  ( 2.00    -0.2741)  ( 2.00    -0.2701)  ( 2.00    -0.2572)
                     ( 2.00    -0.2323)  ( 2.00    -0.2089)  ( 0.00    -0.0076)

 CYCLE    7
  SDIIS (wt  0.884): -0.0084  0.0325 -0.0021  0.2198  0.3329  0.4252
 A-DIIS (wt  0.116):  0.0000  0.0000  0.0000  0.0000  0.0510  0.9490
  DIIS coefficients: -0.0074  0.0287 -0.0019  0.1944  0.3003  0.4858
 SCF Error: norm([F,P])=      0.046631431312, max([F,P])=      0.012450564569
 orbitals (Q,E):
 ---------------
 A :59...69          ( 2.00    -0.3097)  ( 2.00    -0.2941)  ( 2.00    -0.2894)  ( 2.00    -0.2866)
                     ( 2.00    -0.2828)  ( 2.00    -0.2736)  ( 2.00    -0.2694)  ( 2.00    -0.2552)
                     ( 2.00    -0.2305)  ( 2.00    -0.2067)  ( 0.00    -0.0064)

 CYCLE    8
  SDIIS (wt  0.957): -0.0023  0.0053 -0.0025  0.0648  0.1253  0.3438  0.4657
 A-DIIS (wt  0.043):  0.0000  0.0000  0.0000  0.0000  0.0000  0.2093  0.7907
  DIIS coefficients: -0.0022  0.0050 -0.0024  0.0620  0.1200  0.3380  0.4795
 SCF Error: norm([F,P])=      0.020314936374, max([F,P])=      0.005222074629
 orbitals (Q,E):
 ---------------
 A :59...69          ( 2.00    -0.3100)  ( 2.00    -0.2938)  ( 2.00    -0.2892)  ( 2.00    -0.2865)
                     ( 2.00    -0.2828)  ( 2.00    -0.2735)  ( 2.00    -0.2695)  ( 2.00    -0.2556)
                     ( 2.00    -0.2307)  ( 2.00    -0.2070)  ( 0.00    -0.0065)

 CYCLE    9
  SDIIS (wt  1.000):  0.0009 -0.0015 -0.0007  0.0208  0.0454  0.1647  0.2880  0.4825
  DIIS coefficients:  0.0009 -0.0015 -0.0007  0.0208  0.0454  0.1647  0.2880  0.4825
 SCF Error: norm([F,P])=      0.003750078828, max([F,P])=      0.000618802253
 orbitals (Q,E):
 ---------------
 A :59...69          ( 2.00    -0.3100)  ( 2.00    -0.2940)  ( 2.00    -0.2894)  ( 2.00    -0.2865)
                     ( 2.00    -0.2828)  ( 2.00    -0.2736)  ( 2.00    -0.2695)  ( 2.00    -0.2557)
                     ( 2.00    -0.2309)  ( 2.00    -0.2072)  ( 0.00    -0.0066)

 CYCLE   10
  SDIIS (wt  1.000):  0.0002 -0.0008 -0.0002 -0.0004  0.0009  0.0193  0.0610  0.2592  0.6607
  DIIS coefficients:  0.0002 -0.0008 -0.0002 -0.0004  0.0009  0.0193  0.0610  0.2592  0.6607
 SCF Error: norm([F,P])=      0.001068633919, max([F,P])=      0.000155847592
 orbitals (Q,E):
 ---------------
 A :59...69          ( 2.00    -0.3100)  ( 2.00    -0.2939)  ( 2.00    -0.2894)  ( 2.00    -0.2865)
                     ( 2.00    -0.2828)  ( 2.00    -0.2736)  ( 2.00    -0.2695)  ( 2.00    -0.2557)
                     ( 2.00    -0.2309)  ( 2.00    -0.2072)  ( 0.00    -0.0066)

 CYCLE   11
  SDIIS (wt  1.000):  0.0001 -0.0004 -0.0000 -0.0013 -0.0018  0.0004  0.0138  0.1049  0.3199  0.5644
  DIIS coefficients:  0.0001 -0.0004 -0.0000 -0.0013 -0.0018  0.0004  0.0138  0.1049  0.3199  0.5644
 SCF Error: norm([F,P])=      0.000261538631, max([F,P])=      0.000041222734
 orbitals (Q,E):
 ---------------
 A :59...69          ( 2.00    -0.3100)  ( 2.00    -0.2939)  ( 2.00    -0.2894)  ( 2.00    -0.2865)
                     ( 2.00    -0.2828)  ( 2.00    -0.2736)  ( 2.00    -0.2695)  ( 2.00    -0.2556)
                     ( 2.00    -0.2308)  ( 2.00    -0.2072)  ( 0.00    -0.0066)

 CYCLE   12
  SDIIS (wt  1.000): -0.0001 -0.0000 -0.0006 -0.0009 -0.0009  0.0033  0.0397  0.1244  0.3031  0.5319
  DIIS coefficients: -0.0001 -0.0000 -0.0006 -0.0009 -0.0009  0.0033  0.0397  0.1244  0.3031  0.5319
 SCF Error: norm([F,P])=      0.000083929803, max([F,P])=      0.000013136842
 orbitals (Q,E):
 ---------------
 A :59...69          ( 2.00    -0.3100)  ( 2.00    -0.2939)  ( 2.00    -0.2894)  ( 2.00    -0.2865)
                     ( 2.00    -0.2828)  ( 2.00    -0.2736)  ( 2.00    -0.2695)  ( 2.00    -0.2556)
                     ( 2.00    -0.2308)  ( 2.00    -0.2072)  ( 0.00    -0.0066)

 CYCLE   13
  SDIIS (wt  1.000):  0.0000 -0.0001 -0.0002 -0.0006 -0.0002  0.0085  0.0253  0.1106  0.3729  0.4837
  DIIS coefficients:  0.0000 -0.0001 -0.0002 -0.0006 -0.0002  0.0085  0.0253  0.1106  0.3729  0.4837
 SCF Error: norm([F,P])=      0.000045176623, max([F,P])=      0.000009146031
 orbitals (Q,E):
 ---------------
 A :59...69          ( 2.00    -0.3100)  ( 2.00    -0.2939)  ( 2.00    -0.2894)  ( 2.00    -0.2865)
                     ( 2.00    -0.2828)  ( 2.00    -0.2736)  ( 2.00    -0.2695)  ( 2.00    -0.2556)
                     ( 2.00    -0.2309)  ( 2.00    -0.2072)  ( 0.00    -0.0066)

 CYCLE   14
  SDIIS (wt  1.000):  0.0000  0.0000 -0.0001 -0.0001  0.0009  0.0017  0.0251  0.1302  0.2621  0.5802
  DIIS coefficients:  0.0000  0.0000 -0.0001 -0.0001  0.0009  0.0017  0.0251  0.1302  0.2621  0.5802
 SCF Error: norm([F,P])=      0.000011748850, max([F,P])=      0.000002026640
 orbitals (Q,E):
 ---------------
 A :59...69          ( 2.00    -0.3100)  ( 2.00    -0.2939)  ( 2.00    -0.2894)  ( 2.00    -0.2865)
                     ( 2.00    -0.2828)  ( 2.00    -0.2736)  ( 2.00    -0.2695)  ( 2.00    -0.2556)
                     ( 2.00    -0.2309)  ( 2.00    -0.2072)  ( 0.00    -0.0066)

 CYCLE   15
  SDIIS (wt  1.000):  0.0000 -0.0000 -0.0001  0.0001  0.0004  0.0093  0.0517  0.1099  0.2711  0.5576
  DIIS coefficients:  0.0000 -0.0000 -0.0001  0.0001  0.0004  0.0093  0.0517  0.1099  0.2711  0.5576
 SCF Error: norm([F,P])=      0.000002685379, max([F,P])=      0.000000525190
 orbitals (Q,E):
 ---------------
 A :59...69          ( 2.00    -0.3100)  ( 2.00    -0.2939)  ( 2.00    -0.2894)  ( 2.00    -0.2865)
                     ( 2.00    -0.2828)  ( 2.00    -0.2736)  ( 2.00    -0.2695)  ( 2.00    -0.2556)
                     ( 2.00    -0.2309)  ( 2.00    -0.2072)  ( 0.00    -0.0066)

 SCF CONVERGED
 cosmo_calcen: 0.5 (esolb+esolc) (Hartrees) =   -0.006282

 Solvation energy (screening term,uncorrected) =     -3.941729 kcal/mol

 Solvation energy (dispersion and cavitation terms) =      1.466329 kcal/mol
 Solvation Energy Contributions (Hartrees)
          esola   esolb+esolc
     0.00628154   -0.01256309
 esol last cycle   -0.00628154

 CYCLE   16
1
 ***************************************************************************************************



                                                *******************
                                                *  R E S U L T S  *
                                                *******************
  
 *** Using FIT density in Focky
  SDIIS (wt  1.000): -0.0000 -0.0000 -0.0002 -0.0005  0.0005  0.0089  0.0252  0.0780  0.2923  0.5958
  DIIS coefficients: -0.0000 -0.0000 -0.0002 -0.0005  0.0005  0.0089  0.0252  0.0780  0.2923  0.5958
 SCF Error: norm([F,P])=      0.000000943616, max([F,P])=      0.000000168198

 Orbital Energies, per Irrep and Spin:
 ======================================
                        Occup              E (au)              E (eV)       Diff (eV) with prev. cycle
                        -----      --------------------        ------       --------------------------
 A
              59        2.000     -0.30995769342871E+00        -8.434               1.13E-06
              60        2.000     -0.29393668823204E+00        -7.998               6.73E-07
              61        2.000     -0.28938760155689E+00        -7.875               8.39E-07
              62        2.000     -0.28648447017513E+00        -7.796               1.15E-06
              63        2.000     -0.28278328580723E+00        -7.695               9.92E-07
              64        2.000     -0.27360312804380E+00        -7.445               7.22E-07
              65        2.000     -0.26950731437356E+00        -7.334               1.50E-06
              66        2.000     -0.25564740224907E+00        -6.957               7.47E-07
              67        2.000     -0.23085076804680E+00        -6.282               2.86E-07
              68        2.000     -0.20715937882159E+00        -5.637              -3.78E-07
              69        0.000     -0.66254807293514E-02        -0.180
              70        0.000     -0.49266062769528E-02        -0.134
              71        0.000      0.11262355041075E-02         0.031
              72        0.000      0.15118028228863E-01         0.411
              73        0.000      0.17531364338296E-01         0.477
              74        0.000      0.21619448010026E-01         0.588
              75        0.000      0.26618185480464E-01         0.724
              76        0.000      0.29774982943669E-01         0.810
              77        0.000      0.32039220946534E-01         0.872
              78        0.000      0.41013603645496E-01         1.116
  
 HOMO :       68 A                -0.20715937882159E+00
 LUMO :       69 A                -0.66254807293514E-02
  
 cosmo_calcen: 0.5 (esolb+esolc) (Hartrees) =   -0.006282

 Solvation energy (screening term,uncorrected) =     -3.941730 kcal/mol

 Solvation energy (dispersion and cavitation terms) =      1.466329 kcal/mol
 Solvation Energy Contributions (Hartrees)
          esola   esolb+esolc
     0.00628155   -0.01256309
 esol last cycle   -0.00628155


 All Electron Calculation, thus no Orbital Energies of the Core Orbitals are calculated


 Fit test: (difference of exact and fit density, squared integrated, result summed over spins)
         Sum-of-Fragments:                             0.00000000001281
         Orthogonalized Fragments:                     0.00004868347374
         SCF:                                          0.00011704000482



 ==========================
 Electron Density at Nuclei
 ==========================
  
 The electron density is calculated at points on a small sphere around the center of a nucleus.
 The printed electron density is the average electron density on these points.
 The radius of the sphere is the printed approximate finite nuclear radius.

         Atom        Nuclear Radius (Angstrom)             Electron Density (a.u.)
         ----        -------------------------             -----------------------
     1)   O                 0.0000345546                              310.80299
     2)   P                 0.0000412627                             2180.60763
     3)   O                 0.0000345546                              310.88517
     4)   O                 0.0000345546                              310.84041
     5)   C                 0.0000320678                              126.30046
     6)   C                 0.0000320678                              126.30453
     7)   C                 0.0000320678                              126.27255
     8)   C                 0.0000320678                              126.26784
     9)   C                 0.0000320678                              126.27685
    10)   C                 0.0000320678                              126.26771
    11)   H                 0.0000181514                                0.48383
    12)   H                 0.0000181514                                0.48525
    13)   H                 0.0000181514                                0.48384
    14)   H                 0.0000181514                                0.48485
    15)   H                 0.0000181514                                0.48274
    16)   H                 0.0000181514                                0.48339
    17)   H                 0.0000181514                                0.48402
    18)   H                 0.0000181514                                0.48415
    19)   H                 0.0000181514                                0.48294
    20)   H                 0.0000181514                                0.48299
    21)   H                 0.0000181514                                0.48309
    22)   H                 0.0000181514                                0.48529
    23)   C                 0.0000320678                              126.29895
    24)   C                 0.0000320678                              126.22000
    25)   H                 0.0000181514                                0.48341
    26)   H                 0.0000181514                                0.48483
    27)   C                 0.0000320678                              126.26120
    28)   C                 0.0000320678                              126.26860
    29)   H                 0.0000181514                                0.48408
    30)   C                 0.0000320678                              126.26357
    31)   H                 0.0000181514                                0.49208
    32)   C                 0.0000320678                              126.26828
    33)   H                 0.0000181514                                0.48459
    34)   H                 0.0000181514                                0.48616
    35)   H                 0.0000181514                                0.48421
    36)   H                 0.0000181514                                0.48657
    37)   H                 0.0000181514                                0.48582
    38)   H                 0.0000181514                                0.48418
    39)   H                 0.0000181514                                0.48443
    40)   H                 0.0000181514                                0.48405
    41)   H                 0.0000181514                                0.48685



 =======================================
 M U L L I K E N   P O P U L A T I O N S
 =======================================
  
 The survey below gives for each atom:
 a) the total charge (Z minus electrons)
 b) the net spin polarization (nr of electrons spin-A minus spin-B)
 c) for each spin the atomic electron valence density (integrated) per L-value.

 Atom              Charge    Spin density          S         P         D         F
 ----              ------    ------------       ------    ------    ------    ------
 1 O              -0.5061                       3.8199    4.6178    0.0629    0.0055
 2 P               0.6906                       5.5162    8.2203    0.4664    0.1065
 3 O              -0.5361                       3.8238    4.6458    0.0610    0.0055
 4 O              -0.5412                       3.8207    4.6548    0.0601    0.0055
 5 C               0.2486                       3.1514    2.4712    0.1220    0.0068
 6 C               0.2878                       3.1405    2.4419    0.1229    0.0069
 7 C               0.4898                       2.9699    2.4968    0.0418    0.0017
 8 C               0.4280                       2.9783    2.5498    0.0421    0.0018
 9 C               0.4589                       2.9669    2.5304    0.0421    0.0017
 10 C              0.4301                       2.9783    2.5478    0.0420    0.0018
 11 H             -0.1393                       1.0543    0.0806    0.0044    0.0000
 12 H             -0.1338                       1.0438    0.0856    0.0045    0.0000
 13 H             -0.1788                       1.0933    0.0812    0.0043    0.0000
 14 H             -0.1390                       1.0534    0.0811    0.0044    0.0000
 15 H             -0.1241                       1.0396    0.0803    0.0043    0.0000
 16 H             -0.1628                       1.0791    0.0794    0.0043    0.0000
 17 H             -0.1310                       1.0456    0.0810    0.0044    0.0000
 18 H             -0.1554                       1.0698    0.0812    0.0044    0.0000
 19 H             -0.1673                       1.0835    0.0795    0.0043    0.0000
 20 H             -0.1241                       1.0395    0.0802    0.0043    0.0000
 21 H             -0.1590                       1.0754    0.0793    0.0043    0.0000
 22 H             -0.1420                       1.0565    0.0811    0.0044    0.0000
 23 C              0.5078                       3.0644    2.3159    0.1061    0.0058
 24 C             -0.0089                       3.2316    2.6762    0.0966    0.0045
 25 H             -0.1564                       1.0736    0.0785    0.0043    0.0000
 26 H             -0.1296                       1.0439    0.0814    0.0043    0.0000
 27 C              0.4849                       2.9648    2.5050    0.0435    0.0018
 28 C              0.4706                       2.9677    2.5161    0.0437    0.0018
 29 H             -0.1402                       1.0543    0.0816    0.0043    0.0000
 30 C              0.3917                       2.9837    2.5808    0.0421    0.0017
 31 H             -0.1682                       1.0871    0.0766    0.0045    0.0000
 32 C              0.4684                       2.9636    2.5223    0.0438    0.0018
 33 H             -0.1754                       1.0906    0.0805    0.0044    0.0000
 34 H             -0.1255                       1.0381    0.0830    0.0044    0.0000
 35 H             -0.1658                       1.0807    0.0808    0.0044    0.0000
 36 H             -0.1698                       1.0825    0.0829    0.0044    0.0000
 37 H             -0.1394                       1.0534    0.0817    0.0043    0.0000
 38 H             -0.1683                       1.0829    0.0810    0.0044    0.0000
 39 H             -0.1536                       1.0691    0.0801    0.0044    0.0000
 40 H             -0.1604                       1.0768    0.0793    0.0043    0.0000
 41 H             -0.1559                       1.0693    0.0823    0.0044    0.0000

 Populations of individual BAS functions
 ----------------------------------------
 1 O            0.0000 -0.0000  0.0003  0.0004  0.4551  1.6740 -0.1652  1.0026  0.8527  0.0031
                0.0037  0.0035  0.1952  0.2601  0.2527  0.9159  1.0409  1.0111  0.1513  0.4161
                0.3643  0.0327  0.0135  0.0190 -0.0080  0.0073 -0.0016  0.0114  0.0089  0.0080
               -0.0069  0.0007 -0.0024 -0.0084 -0.0040  0.0007 -0.0026
 3 O            0.0000 -0.0000  0.0003  0.0004  0.4550  1.6745 -0.1659  1.0091  0.8503  0.0032
                0.0034  0.0033  0.2246  0.2470  0.2407  0.9482  0.9892  0.9779  0.2935  0.3758
                0.3390  0.0132  0.0161  0.0101  0.0017  0.0123  0.0076  0.0019  0.0014  0.0017
                0.0012  0.0009 -0.0015  0.0007  0.0018 -0.0008 -0.0018
 4 O            0.0000 -0.0000  0.0003  0.0003  0.4563  1.6753 -0.1679  1.0084  0.8481  0.0031
                0.0034  0.0035  0.2040  0.2480  0.2616  0.9133  0.9877  1.0163  0.1966  0.3778
                0.4395  0.0266  0.0182  0.0121  0.0006  0.0101 -0.0076  0.0083  0.0060  0.0079
               -0.0003  0.0009 -0.0062 -0.0000  0.0024 -0.0046 -0.0088
 2 P           -0.0000  0.0000 -0.0001  0.0040  0.5050  1.4437  1.4817  0.5477  0.0071  0.0070
                0.0071  0.7482  0.7487  0.7537  1.2667  1.2628  1.2585  0.3175  1.2412 -0.0245
                0.2674  0.2559  0.3599  0.3996  0.3307  0.6189 -0.0451 -0.0358  0.0090  0.0562
                0.1350  0.0964  0.0540  0.0802  0.0446  0.0034  0.0244  0.0188  0.0221  0.0217
                0.0083 -0.0030  0.0132  0.0068 -0.0092
 5 C            0.0000 -0.0000  0.0005 -0.0080  0.4674  1.5926  0.3160  0.9129 -0.1301  0.0022
                0.0026  0.0025 -0.1483 -0.1660 -0.1896  0.8021  0.9177  0.8937  0.1113  0.1226
                0.1203  0.0146  0.0251  0.0262  0.0132  0.0255  0.0173 -0.0006  0.0010  0.0012
                0.0014  0.0012  0.0014 -0.0007  0.0005  0.0013  0.0001
 6 C            0.0000 -0.0000  0.0005 -0.0083  0.4686  1.5918  0.3001  0.9187 -0.1309  0.0022
                0.0026  0.0025 -0.1606 -0.1752 -0.2044  0.7891  0.9253  0.9068  0.1082  0.1234
                0.1219  0.0172  0.0255  0.0290  0.0135  0.0247  0.0130  0.0005  0.0014  0.0019
                0.0006  0.0010  0.0013 -0.0005  0.0011  0.0008 -0.0014
 7 C            0.0000 -0.0000  0.0006 -0.0104  0.4812  1.5776  0.0896  0.9643 -0.1330  0.0026
                0.0026  0.0024 -0.3229 -0.2854 -0.2443  1.0102  1.0021  0.9259  0.1350  0.1376
                0.1312  0.0017  0.0115  0.0105  0.0032  0.0083  0.0066 -0.0015  0.0007  0.0000
                0.0006  0.0004  0.0014 -0.0010 -0.0004  0.0007  0.0008
 8 C            0.0000 -0.0000  0.0006 -0.0104  0.4811  1.5778  0.0991  0.9631 -0.1329  0.0024
                0.0024  0.0026 -0.2184 -0.2685 -0.2796  0.9424  0.9535  1.0044  0.1370  0.1327
                0.1388  0.0048  0.0110  0.0080  0.0041  0.0117  0.0025 -0.0000  0.0008  0.0004
                0.0008  0.0004 -0.0004 -0.0003  0.0012 -0.0000 -0.0011
 9 C            0.0000 -0.0000  0.0006 -0.0106  0.4821  1.5767  0.0846  0.9665 -0.1330  0.0024
                0.0025  0.0024 -0.2452 -0.2921 -0.2540  0.9578  1.0000  0.9494  0.1368  0.1374
                0.1328  0.0060  0.0064  0.0096  0.0034  0.0133  0.0033  0.0001 -0.0000  0.0005
               -0.0003  0.0003  0.0006 -0.0009  0.0006  0.0014 -0.0005
 10 C           0.0000 -0.0000  0.0006 -0.0105  0.4816  1.5773  0.0987  0.9634 -0.1327  0.0025
                0.0024  0.0025 -0.2458 -0.2644 -0.2611  0.9744  0.9499  0.9795  0.1383  0.1323
                0.1373  0.0029  0.0094  0.0105  0.0045  0.0128  0.0020 -0.0012 -0.0001  0.0007
                0.0008  0.0004  0.0008 -0.0001  0.0013  0.0007 -0.0015
 23 C           0.0000 -0.0000  0.0005 -0.0085  0.4703  1.5902  0.2034  0.9420 -0.1335  0.0019
                0.0027  0.0026 -0.1932 -0.3021 -0.2550  0.7192  0.9951  0.9770  0.1002  0.1322
                0.1353  0.0180  0.0243  0.0202  0.0152  0.0182  0.0103  0.0030  0.0007  0.0014
               -0.0006  0.0004 -0.0008  0.0012  0.0013 -0.0001 -0.0009
 24 C           0.0000 -0.0000  0.0005 -0.0086  0.4709  1.5857  0.4342  0.8696 -0.1208  0.0026
                0.0026  0.0026 -0.1503 -0.1204 -0.1467  0.9175  0.9039  0.9011  0.1198  0.1214
                0.1221  0.0125  0.0181  0.0195  0.0132  0.0197  0.0136  0.0005  0.0004  0.0003
                0.0001  0.0004  0.0006  0.0004  0.0007  0.0004  0.0007
 27 C           0.0000 -0.0000  0.0006 -0.0101  0.4798  1.5786  0.0890  0.9587 -0.1317  0.0026
                0.0025  0.0024 -0.3072 -0.2736 -0.2290  1.0104  0.9766  0.9149  0.1366  0.1369
                0.1318  0.0055  0.0053  0.0094  0.0066  0.0088  0.0080  0.0000 -0.0006 -0.0007
               -0.0002  0.0002  0.0008  0.0001 -0.0001  0.0008  0.0014
 28 C           0.0000 -0.0000  0.0006 -0.0101  0.4797  1.5782  0.0942  0.9559 -0.1307  0.0026
                0.0023  0.0025 -0.2842 -0.2172 -0.2894  0.9996  0.8998  0.9949  0.1375  0.1315
                0.1363  0.0066  0.0078  0.0055  0.0080  0.0117  0.0041  0.0002 -0.0006 -0.0002
                0.0006  0.0002 -0.0004  0.0017  0.0013 -0.0004 -0.0005
 30 C           0.0000 -0.0000  0.0006 -0.0107  0.4827  1.5761  0.1035  0.9639 -0.1324  0.0025
                0.0023  0.0025 -0.2706 -0.1756 -0.2734  0.9938  0.8913  0.9968  0.1389  0.1343
                0.1380  0.0059  0.0055  0.0063  0.0089  0.0125  0.0031 -0.0000 -0.0010 -0.0001
                0.0006  0.0002 -0.0002  0.0020  0.0016 -0.0004 -0.0009
 32 C           0.0000 -0.0000  0.0006 -0.0103  0.4806  1.5776  0.0872  0.9592 -0.1312  0.0023
                0.0025  0.0025 -0.2159 -0.2753 -0.2809  0.9009  0.9914  0.9880  0.1318  0.1383
                0.1368  0.0082  0.0110  0.0085  0.0042  0.0060  0.0059  0.0019  0.0011  0.0007
               -0.0006  0.0002 -0.0006 -0.0004 -0.0003 -0.0001  0.0000
 11 H           0.0000 -0.0000  0.0006 -0.0274  0.4050  0.1974  0.4787  0.0297  0.0264  0.0245
                0.0028  0.0012  0.0006 -0.0021  0.0007  0.0013
 12 H           0.0000 -0.0000  0.0008 -0.0341  0.4120  0.1484  0.5166  0.0291  0.0308  0.0257
                0.0011  0.0006  0.0010  0.0031  0.0010 -0.0023
 13 H           0.0000 -0.0000  0.0006 -0.0264  0.4543  0.1963  0.4685  0.0263  0.0298  0.0250
               -0.0002  0.0009  0.0006  0.0027  0.0007 -0.0004
 14 H           0.0000 -0.0000  0.0007 -0.0301  0.4231  0.1623  0.4974  0.0238  0.0241  0.0333
               -0.0021  0.0006  0.0012 -0.0004  0.0010  0.0041
 15 H           0.0000 -0.0000  0.0008 -0.0336  0.4266  0.1278  0.5179  0.0274  0.0265  0.0264
                0.0037  0.0012  0.0008 -0.0011  0.0006 -0.0009
 16 H           0.0000 -0.0000  0.0006 -0.0271  0.4369  0.1938  0.4750  0.0255  0.0255  0.0284
               -0.0009  0.0009  0.0007  0.0020  0.0006  0.0009
 17 H           0.0000 -0.0000  0.0007 -0.0303  0.4079  0.1696  0.4977  0.0272  0.0263  0.0275
                0.0047  0.0012  0.0012 -0.0022  0.0007 -0.0012
 18 H           0.0000 -0.0000  0.0007 -0.0313  0.4615  0.1361  0.5027  0.0261  0.0307  0.0244
               -0.0008  0.0008  0.0007  0.0031  0.0008 -0.0002
 19 H           0.0000 -0.0000  0.0005 -0.0256  0.4308  0.2126  0.4652  0.0244  0.0297  0.0254
               -0.0026  0.0009  0.0008  0.0027  0.0006  0.0018
 20 H           0.0000 -0.0000  0.0008 -0.0337  0.4261  0.1286  0.5178  0.0274  0.0263  0.0265
                0.0033  0.0011  0.0008 -0.0013  0.0008 -0.0002
 21 H           0.0000 -0.0000  0.0006 -0.0267  0.4227  0.2063  0.4726  0.0254  0.0254  0.0285
               -0.0018  0.0008  0.0009  0.0021  0.0007  0.0016
 22 H           0.0000 -0.0000  0.0007 -0.0315  0.4602  0.1181  0.5091  0.0290  0.0240  0.0281
                0.0014  0.0008  0.0007 -0.0005  0.0008  0.0012
 25 H           0.0000 -0.0000  0.0006 -0.0270  0.4130  0.2149  0.4721  0.0278  0.0228  0.0280
                0.0008  0.0005  0.0006 -0.0006  0.0007  0.0022
 26 H           0.0000 -0.0000  0.0008 -0.0341  0.4291  0.1274  0.5206  0.0252  0.0246  0.0317
               -0.0027  0.0004  0.0013  0.0006  0.0007  0.0040
 29 H           0.0000 -0.0000  0.0008 -0.0324  0.4421  0.1331  0.5108  0.0320  0.0235  0.0260
                0.0054  0.0015  0.0014 -0.0023  0.0003 -0.0020
 31 H           0.0000 -0.0000  0.0005 -0.0240  0.4501  0.2027  0.4579  0.0212  0.0269  0.0285
               -0.0021  0.0004  0.0010 -0.0002  0.0009  0.0045
 33 H           0.0000 -0.0000  0.0006 -0.0264  0.4423  0.2048  0.4692  0.0282  0.0240  0.0283
                0.0007  0.0006  0.0006  0.0004  0.0006  0.0015
 34 H           0.0000 -0.0000  0.0009 -0.0366  0.4779  0.0541  0.5418  0.0331  0.0240  0.0259
                0.0052  0.0015  0.0014 -0.0025  0.0003 -0.0015
 35 H           0.0000 -0.0000  0.0007 -0.0288  0.4432  0.1809  0.4847  0.0259  0.0241  0.0308
               -0.0028  0.0003  0.0015 -0.0004  0.0009  0.0049
 36 H           0.0000 -0.0000  0.0008 -0.0311  0.4753  0.1371  0.5004  0.0270  0.0305  0.0253
               -0.0014  0.0012  0.0003  0.0053  0.0016 -0.0025
 37 H           0.0000 -0.0000  0.0009 -0.0362  0.5092  0.0387  0.5408  0.0324  0.0248  0.0244
                0.0054  0.0016  0.0014 -0.0026  0.0002 -0.0017
 38 H           0.0000 -0.0000  0.0006 -0.0272  0.4367  0.1979  0.4750  0.0275  0.0281  0.0254
                0.0000  0.0006  0.0006  0.0005  0.0006  0.0021
 39 H           0.0000 -0.0000  0.0006 -0.0279  0.4092  0.2092  0.4779  0.0236  0.0283  0.0283
                0.0005  0.0006  0.0006  0.0008  0.0006  0.0012
 40 H           0.0000 -0.0000  0.0007 -0.0293  0.4494  0.1665  0.4896  0.0237  0.0258  0.0297
               -0.0023  0.0003  0.0014 -0.0016  0.0012  0.0052
 41 H           0.0000 -0.0000  0.0008 -0.0312  0.4513  0.1467  0.5017  0.0238  0.0324  0.0261
               -0.0009  0.0011  0.0003  0.0051  0.0016 -0.0028

 Gross Charges per Atom (Z minus electrons)
 ==========================================
            -0.5061    0.6906   -0.5361   -0.5412    0.2486    0.2878    0.4898    0.4280    0.4589    0.4301
            -0.1393   -0.1338   -0.1788   -0.1390   -0.1241   -0.1628   -0.1310   -0.1554   -0.1673   -0.1241
            -0.1590   -0.1420    0.5078   -0.0089   -0.1564   -0.1296    0.4849    0.4706   -0.1402    0.3917
            -0.1682    0.4684   -0.1754   -0.1255   -0.1658   -0.1698   -0.1394   -0.1683   -0.1536   -0.1604
            -0.1559
 Net Total: -0.00000000


 Atom-Atom Population Matrix (off-diagonal elements not doubled)
 ===============================================================

     1 :     8.1669
     2 :     0.3068   13.4551
     3 :    -0.0312    0.3188    8.2110
     4 :    -0.0340    0.3202   -0.0473    8.2041
     5 :    -0.0076   -0.0085    0.2042   -0.0206    4.6356
     6 :    -0.0016   -0.0149   -0.0249    0.2175    0.3754    4.5918
     7 :     0.0019    0.0012   -0.0277   -0.0128    0.3599   -0.0230    4.1731
     8 :    -0.0005   -0.0024   -0.0316    0.0032    0.3663   -0.0200   -0.0297    4.2014
     9 :    -0.0006   -0.0049   -0.0117   -0.0308   -0.0226    0.3630   -0.0001    0.0076    4.1892
    10 :     0.0004    0.0020    0.0036   -0.0302   -0.0217    0.3624    0.0081   -0.0057   -0.0249    4.1984
    11 :     0.0006   -0.0066    0.0124    0.0013   -0.0164   -0.0133    0.3515   -0.0141    0.0009    0.0008
             0.9932
    12 :     0.0000    0.0004   -0.0079    0.0054    0.0125   -0.0197    0.3633    0.0050   -0.0011   -0.0066
            -0.0732    0.9712
    13 :     0.0017    0.0001   -0.0143   -0.0015   -0.0176    0.0064    0.3709   -0.0230   -0.0016   -0.0036
            -0.0751   -0.0811    1.0367
    14 :     0.0000   -0.0001   -0.0155    0.0013   -0.0071   -0.0263    0.0009    0.3675    0.0084   -0.0001
             0.0009   -0.0083    0.0030    0.9829
    15 :     0.0002   -0.0007    0.0109    0.0001   -0.0153   -0.0091   -0.0097    0.3823   -0.0019   -0.0005
            -0.0081    0.0044   -0.0013   -0.0849    0.9540
    16 :    -0.0003   -0.0030   -0.0149   -0.0017   -0.0112    0.0079   -0.0191    0.3728   -0.0048    0.0005
            -0.0050    0.0023   -0.0173   -0.0637   -0.0805    1.0011
    17 :     0.0002   -0.0044    0.0008    0.0133   -0.0139   -0.0130    0.0008    0.0008    0.3655   -0.0124
             0.0017   -0.0003   -0.0007    0.0002   -0.0083   -0.0005    0.9579
    18 :    -0.0005   -0.0075    0.0070   -0.0118   -0.0196    0.0001    0.0003   -0.0062    0.3610    0.0046
            -0.0002    0.0011   -0.0005   -0.0224    0.0040    0.0009   -0.0712    0.9913
    19 :    -0.0003   -0.0003   -0.0013   -0.0148    0.0049   -0.0155   -0.0017   -0.0034    0.3757   -0.0201
            -0.0008   -0.0006    0.0007    0.0001    0.0012   -0.0017   -0.0743   -0.0717    1.0064
    20 :    -0.0000   -0.0016    0.0003    0.0112   -0.0076   -0.0132   -0.0038    0.0009   -0.0086    0.3786
            -0.0066    0.0059    0.0009    0.0027   -0.0150    0.0002   -0.0104    0.0032   -0.0012    0.9560
    21 :     0.0002   -0.0012   -0.0016   -0.0138    0.0079   -0.0102   -0.0053    0.0003   -0.0189    0.3715
            -0.0004    0.0018   -0.0019   -0.0009    0.0001    0.0008   -0.0013    0.0035   -0.0180   -0.0805
             0.9931
    22 :    -0.0002   -0.0025    0.0010   -0.0141   -0.0285   -0.0092    0.0117    0.0007    0.0028    0.3653
            -0.0015   -0.0343    0.0018   -0.0001    0.0024   -0.0003    0.0005   -0.0088    0.0040   -0.0871
            -0.0663    1.0028
    23 :     0.2481   -0.0411   -0.0033   -0.0037    0.0019    0.0010    0.0006    0.0000   -0.0002    0.0000
            -0.0002    0.0000    0.0010    0.0002    0.0001   -0.0002    0.0000   -0.0004   -0.0001   -0.0000
            -0.0000    0.0005    4.3657
    24 :    -0.0266   -0.0082    0.0000    0.0002   -0.0009    0.0001    0.0004   -0.0000    0.0001   -0.0001
            -0.0002    0.0007    0.0005   -0.0000    0.0000    0.0000    0.0000   -0.0000    0.0000    0.0000
            -0.0000    0.0001    0.3609    4.7974
    25 :    -0.0120   -0.0064   -0.0005    0.0004   -0.0003    0.0000    0.0000   -0.0001    0.0000   -0.0002
            -0.0001   -0.0004    0.0001   -0.0000    0.0000   -0.0000    0.0000   -0.0002    0.0000   -0.0000
            -0.0001    0.0002   -0.0060    0.0063    0.9885
    26 :    -0.0164   -0.0007   -0.0004    0.0004    0.0000    0.0005    0.0004    0.0000    0.0000    0.0000
             0.0002   -0.0022    0.0002    0.0000    0.0000   -0.0000   -0.0000    0.0000   -0.0000   -0.0000
             0.0001    0.0000   -0.0175   -0.0212   -0.0732    0.9577
    27 :    -0.0096    0.0004    0.0007   -0.0003   -0.0003   -0.0002    0.0010    0.0000   -0.0000    0.0001
             0.0006    0.0002   -0.0008   -0.0000    0.0000   -0.0001    0.0000    0.0000   -0.0000    0.0000
             0.0000   -0.0004   -0.0207    0.3878    0.0013   -0.0015    4.1606
    28 :    -0.0004    0.0004    0.0028   -0.0001   -0.0009    0.0001    0.0005   -0.0000   -0.0001    0.0000
             0.0005    0.0002    0.0012   -0.0000   -0.0000   -0.0001   -0.0000   -0.0001    0.0000   -0.0000
             0.0000   -0.0001   -0.0073    0.3708   -0.0023    0.0002   -0.0220    4.1788
    29 :     0.0144    0.0024    0.0003   -0.0000    0.0002   -0.0001   -0.0000    0.0000    0.0000    0.0000
             0.0000    0.0001   -0.0000    0.0000   -0.0000    0.0000   -0.0000   -0.0000    0.0000    0.0000
             0.0000   -0.0000   -0.0119   -0.0033   -0.0701   -0.0970   -0.0034    0.0012    0.9833
    30 :    -0.0330    0.0027   -0.0006    0.0014    0.0000    0.0001   -0.0001   -0.0000    0.0000   -0.0000
             0.0000   -0.0002    0.0001    0.0000    0.0000   -0.0000   -0.0000   -0.0000    0.0000    0.0000
             0.0000   -0.0001    0.3498   -0.0248    0.3695    0.3985   -0.0036   -0.0005    0.3691    4.2392
    31 :    -0.0596    0.0110   -0.0014   -0.0015    0.0011    0.0004    0.0003    0.0000   -0.0003   -0.0001
             0.0001   -0.0005    0.0004    0.0001    0.0001   -0.0000   -0.0001   -0.0004    0.0000    0.0000
            -0.0000   -0.0000    0.3758   -0.0523   -0.0348    0.0168    0.0006   -0.0249   -0.0272   -0.0512
             1.0508
    32 :     0.0028    0.0009   -0.0003    0.0000    0.0000    0.0001   -0.0000    0.0000    0.0000   -0.0000
             0.0000   -0.0002   -0.0000    0.0000    0.0000   -0.0000   -0.0000    0.0000   -0.0000   -0.0000
            -0.0000    0.0000   -0.0136    0.3738    0.0001   -0.0027   -0.0167   -0.0198   -0.0041    0.0014
            -0.0132    4.1780
    33 :     0.0017   -0.0019    0.0006    0.0000    0.0002   -0.0000    0.0003    0.0000   -0.0000    0.0000
             0.0001    0.0003    0.0007    0.0000    0.0000   -0.0000   -0.0000   -0.0000   -0.0000   -0.0000
             0.0000   -0.0000   -0.0057   -0.0121    0.0003   -0.0011   -0.0125    0.3599   -0.0013   -0.0041
             0.0039   -0.0139    1.0258
    34 :    -0.0021    0.0018   -0.0017    0.0001    0.0015   -0.0009   -0.0023    0.0004   -0.0001    0.0000
            -0.0018    0.0048   -0.0120    0.0001   -0.0002   -0.0001   -0.0001    0.0002   -0.0000    0.0000
             0.0000   -0.0002   -0.0114   -0.0325   -0.0010   -0.0008   -0.0143    0.3787    0.0014    0.0012
            -0.0100   -0.0005   -0.0790    1.0056
    35 :    -0.0008   -0.0011    0.0007   -0.0001   -0.0001    0.0001    0.0002   -0.0000   -0.0000    0.0000
             0.0000   -0.0005    0.0007    0.0000   -0.0000    0.0001   -0.0000   -0.0001   -0.0000    0.0000
             0.0000   -0.0000   -0.0143   -0.0096   -0.0006    0.0016    0.0005    0.3659    0.0001    0.0023
            -0.0042   -0.0119   -0.0710   -0.0878    1.0027
    36 :    -0.0004   -0.0012    0.0001   -0.0002    0.0000   -0.0001   -0.0003   -0.0000   -0.0000    0.0001
            -0.0001    0.0035   -0.0002   -0.0000    0.0000   -0.0000    0.0000   -0.0000   -0.0000    0.0000
             0.0000   -0.0003   -0.0077   -0.0119   -0.0031   -0.0187    0.3621    0.0019    0.0108   -0.0051
             0.0026   -0.0162    0.0044    0.0030   -0.0103    1.0355
    37 :    -0.0002    0.0015   -0.0010    0.0005    0.0005    0.0008   -0.0024   -0.0002    0.0001   -0.0004
            -0.0018   -0.0121    0.0037   -0.0000   -0.0002    0.0009    0.0000   -0.0001    0.0000   -0.0002
            -0.0001    0.0021   -0.0233   -0.0247    0.0012    0.0006    0.3682   -0.0165   -0.0021   -0.0034
             0.0006    0.0011   -0.0055   -0.0058    0.0031   -0.1034    1.0483
    38 :     0.0001    0.0004    0.0001   -0.0000   -0.0001   -0.0000    0.0008    0.0000    0.0000    0.0000
             0.0002   -0.0003    0.0004   -0.0000    0.0000   -0.0001    0.0000    0.0000    0.0000    0.0000
             0.0000   -0.0000    0.0021   -0.0140    0.0006   -0.0025    0.3653   -0.0110    0.0001    0.0023
            -0.0083   -0.0114   -0.0070   -0.0044    0.0040   -0.0656   -0.0858    1.0060
    39 :    -0.0022   -0.0009   -0.0000   -0.0000    0.0000   -0.0000   -0.0001    0.0000   -0.0000    0.0000
            -0.0000   -0.0003    0.0001    0.0000    0.0000   -0.0000    0.0000   -0.0000   -0.0000   -0.0000
            -0.0000    0.0000   -0.0005   -0.0164   -0.0001   -0.0015   -0.0109   -0.0146   -0.0011    0.0005
             0.0028    0.3675   -0.0100    0.0048   -0.0039   -0.0034    0.0029   -0.0037    0.9847
    40 :     0.0006    0.0038   -0.0001    0.0001   -0.0000    0.0001    0.0001    0.0000    0.0000    0.0000
             0.0000    0.0003   -0.0000    0.0000    0.0000   -0.0000    0.0000    0.0000    0.0000    0.0000
             0.0000   -0.0000   -0.0179   -0.0127    0.0008   -0.0003    0.0015   -0.0139    0.0014   -0.0041
            -0.0080    0.3647   -0.0027    0.0022   -0.0024    0.0051   -0.0112    0.0027   -0.0746    1.0150
    41 :    -0.0003   -0.0005   -0.0000    0.0000   -0.0000    0.0000    0.0000    0.0000   -0.0000   -0.0000
             0.0000    0.0000    0.0001   -0.0000    0.0000    0.0000   -0.0000   -0.0000   -0.0000   -0.0000
            -0.0000   -0.0000   -0.0086   -0.0184   -0.0014    0.0100   -0.0186    0.0009   -0.0227    0.0011
            -0.0012    0.3655    0.0053   -0.0112    0.0024   -0.0112    0.0038   -0.0025   -0.0653   -0.0897
             1.0185



 =================================================
 H I R S H F E L D   C H A R G E   A N A L Y S I S
 =================================================
  
 For each fragment: the (numerical) integral of rho(scf) * rho(fragment)/rho(sum-of-fragments)
 (nuclear charges are included, electrons are counted negative)

 The fragments and their ordering are defined in the early G E O M E T R Y output section.
 If you use single-atom fragments, this usually implies that all atoms of the same
 chemical type are grouped together. This may not be the order in which you listed them
 in the input file!

    1  O                        -0.1423
[...]
   11   adf1                                      1          5         -1
 ==============================================================================


May use up to 11697MB of RAM as shared memory on node 0
May use up to 11718MB of RAM as shared memory on node 1
 
NMRCOUPLING
  ATOMPERT 2
  ATOMRESP 23 31
  fc
ADFGUI
END

 *******************************************************************************
 *                                                                             *
 *  --------------------------------                                           *
 *   Amsterdam Modeling Suite (AMS)              2021.102                      *
 *  --------------------------------                                           *
 *                                               r95042 2021-06-07             *
 *                                                                             *
 *                                                                             *
 *                              =================                              *
 *                              |               |                              *
 *                              |     C P L     |                              *
 *                              |               |                              *
 *                              =================                              *
 *                                                                             *
 *                                                                             *
 *   Online information and documentation:  https://www.scm.com/support/       *
 *   E-mail:  support@scm.com   info@scm.com                                   *
 *                                                                             *
 *   Scientific publications using AMS results must be properly referenced     *
 *   See the User Manuals (or the web site) for recommended citations          *
 *   The terms and conditions of the End User License Agreement apply to       *
 *   the use of AMS, https://www.scm.com/license-terms/                        *
 *                                                                             *
 **********************  x86_64_linux_intel / intelmpi  ************************
 
 Licensed to: Dr. Miroslav Ilias / Matej Bel University, Department Chemistry, Fac. Natural Sciences / Banska Bystrica / SLOVAKIA
 SCM User ID: u17848
  
 CPL 2021.102  RunTime: Sep04-2021 23:42:19  ShM Nodes: 2  Procs: 12

 Temporary files are created in /tmp/kid_0.1384629019 (0xEF53)


 Communication costs MPI_COMM_WORLD:      1.636 usec per message,   0.0324 usec per 8-byte item
 Communication costs for intra-node:      1.520 usec per message,   0.0131 usec per 8-byte item

 hello from rdinp, dbg=            0
   
   
  ****************************************  
     *************************************  
     **                                 **  
     **     ######  ######   ##         **  
     **    #######  ##   ##  ##         **  
     **   ##        ######   ##         **  
     **   ##        ##       ##         **  
     **    #######  ##       #######    **  
     **     ######  ##       #######    **  
     **                                 **  
     *************************************  
  ****************************************  
   
  CPL was written by                  
   
  Jochen Autschbach               
  SUNY Buffalo                  
   
  Original development of CPL took     
  place in the research group of       
  Tom Ziegler                 
  University of Calgary          
  Alberta, Canada              
   
  Further developments done by 
  JA's research group at SUNY Buffalo 
   
  Please cite this work using       
  some or all of Refs. [1-4]        
   
  Refs. [1,2]: original implementation    
  Ref. [3]: NBO analysis, 
  Ref. [4]: hybrid functionals and rewrite
  Recommended references: [2,4]       
   
  Nonrelativistic code for the       
  DSO term and a few other things     
  based on the Dickson & Ziegler      
  program, Refs. [5,6]            
   
  References: 
  =========== 
   
  [1] J. Autschbach and T. Ziegler,      
      J. Chem. Phys. 113 (2000), 936     
   
  [2] J. Autschbach and T. Ziegler,      
      J. Chem. Phys. 113 (2000), 9410    
   
  [3] J. Autschbach,                     
      J. Chem. Phys. 128 (2008), 164112  
   
  [4] J. Autschbach,                     
      J. Chem. Phys. 129 (2008), 094105  
   
  [5] R. M. Dickson and T. Ziegler,      
      J. Phys. Chem. 100 (1996), 5286    
   
  [6] J. Khandogin and T. Ziegler,       
      Spectrochim. Acta A55 (1999), 607  
   
  ****************************************  
   



                                        ***********************************
                                        *   J O B  I N F O R M A T I O N  *
                                        ***********************************
  



 ===============================
 General information from TAPE21
 ===============================
  
  TITLE:      *** adf ***                                       
 JOB ID:      1754413028
  NONLXC:     OPTX PBEc                                         
  SYMMETRY:   NOSYM                                             
   
  IOPREL:       0
  ------>     non-rel. (Re MOs)



 ==========================================
 Nuclear Coordinates and internal numbering
 ==========================================
  
  O  (  1):       3.3759     -0.4579     -0.0022
  O  (  2):       1.5140      1.3085     -0.0977
  O  (  3):       1.0975     -0.8974     -0.8799
  P  (  4):       2.2970      0.2084     -1.0144
  C  (  5):       0.4214      0.7477      0.6730
  C  (  6):      -0.1019     -0.3894     -0.2529
  C  (  7):       0.9668      0.2399      1.9991
  C  (  8):      -0.5793      1.8584      0.9142
  C  (  9):      -1.0169      0.1172     -1.3574
  C  ( 10):      -0.7590     -1.5351      0.4885
  C  ( 11):       4.7632     -0.5091     -0.3739
  C  ( 12):       5.6004      0.2496      0.6744
  C  ( 13):       5.4519     -0.3707      2.0615
  C  ( 14):       5.1302      1.7028      0.7188
  C  ( 15):       5.1261     -1.9644     -0.5824
  C  ( 16):       7.0692      0.2261      0.2526
  H  ( 17):       0.1543     -0.0812      2.6521
  H  ( 18):       1.6600     -0.5881      1.8604
  H  ( 19):       1.4990      1.0535      2.4934
  H  ( 20):      -0.8675      2.3484     -0.0140
  H  ( 21):      -1.4758      1.4624      1.3950
  H  ( 22):      -0.1434      2.6056      1.5783
  H  ( 23):      -1.9850      0.4237     -0.9602
  H  ( 24):      -0.5737      0.9616     -1.8870
  H  ( 25):      -1.1810     -0.6889     -2.0731
  H  ( 26):      -1.6276     -1.1776      1.0448
  H  ( 27):      -1.1016     -2.2848     -0.2256
  H  ( 28):      -0.0691     -2.0103      1.1832
  H  ( 29):       4.4910     -2.3902     -1.3604
  H  ( 30):       4.9743     -2.5415      0.3305
  H  ( 31):       6.1635     -2.0733     -0.8979
  H  ( 32):       4.8831      0.0239     -1.3269
  H  ( 33):       5.7437      2.2752      1.4181
  H  ( 34):       4.0907      1.7761      1.0403
  H  ( 35):       5.2159      2.1736     -0.2647
  H  ( 36):       5.8412     -1.3900      2.0945
  H  ( 37):       4.4053     -0.3924      2.3694
  H  ( 38):       6.0088      0.2188      2.7936
  H  ( 39):       7.6556      0.8627      0.9187
  H  ( 40):       7.1963      0.6037     -0.7656
  H  ( 41):       7.4930     -0.7782      0.2991



 =======
 Numbers
 =======
  
  number of valence electrons:    136.00
 
  ---   AOs   ---          ---   MOs   ---
  ncor =      0            nocc =     68
  nval =   1000            nvir =    843
  nbas =   1000            nmo  =    911
  naos =   1000            nsot =    911



 ===================
 Fragments and Basis
 ===================
  
   
  --------------------------
  ATOM TYPE:  O                                                 
  --------------------------
  === BASIS
    1S  800.00     VALENCE
    1S  160.00     VALENCE
    1S   40.00     VALENCE
    1S   16.00     VALENCE
    1S    9.80     VALENCE
    1S    6.80     VALENCE
    2S    7.58     VALENCE
    2S    2.88     VALENCE
    2S    1.72     VALENCE
    2P    9.80     VALENCE
    2P    4.08     VALENCE
    2P    2.08     VALENCE
    2P    1.12     VALENCE
    3D    2.00     VALENCE
    4F    3.00     VALENCE
   
  --------------------------
  ATOM TYPE:  P                                                 
  --------------------------
  === BASIS
    1S 1500.00     VALENCE
    1S  300.00     VALENCE
    1S   75.00     VALENCE
    1S   30.00     VALENCE
    1S   18.00     VALENCE
    1S   13.35     VALENCE
    2S    5.60     VALENCE
    2S    4.05     VALENCE
    2P   18.00     VALENCE
    2P    7.45     VALENCE
    2P    4.10     VALENCE
    3S    2.70     VALENCE
    3S    1.85     VALENCE
    3S    1.30     VALENCE
    3P    2.30     VALENCE
    3P    1.35     VALENCE
    3P    0.85     VALENCE
    3D    1.90     VALENCE
    4F    2.00     VALENCE
   
  --------------------------
  ATOM TYPE:  C                                                 
  --------------------------
  === BASIS
    1S  600.00     VALENCE
    1S  120.00     VALENCE
    1S   30.00     VALENCE
    1S   12.00     VALENCE
    1S    7.68     VALENCE
    1S    5.00     VALENCE
    2S    1.28     VALENCE
    2S    2.10     VALENCE
    2S    4.60     VALENCE
    2P    7.68     VALENCE
    2P    0.82     VALENCE
    2P    1.48     VALENCE
    2P    2.94     VALENCE
    3D    2.20     VALENCE
    4F    3.30     VALENCE
   
  --------------------------
  ATOM TYPE:  H                                                 
  --------------------------
  === BASIS
    1S  100.00     VALENCE
    1S   25.00     VALENCE
    1S    7.50     VALENCE
    1S    3.00     VALENCE
    1S    0.69     VALENCE
    1S    0.92     VALENCE
    1S    1.58     VALENCE
    2P    1.25     VALENCE
    3D    2.50     VALENCE



 =================================
 TAPE10 info, TAPE21 compatibility
 =================================
  
  ---> TAPE10 will be created by CPL
 
  ---> TAPE21 present
 
  ---> Potential is already on TAPE10.
       It will not be re-calculated.



 ==========================================
 Settings for the NMR couplings computation
 ==========================================
  
  Compute...
  FC  Term    YES             (*     default *)
  SD  Term     NO             (*     default *)
  PSO Term     NO             (*     default *)
  DSO Term     NO             (*     default *)
 
  Max. no. of SCF iterations:                25
  Convergence criterion for SCF cycle:       0.000100000

  Nuclei numbering in the output refers to the
  INTERNAL atom ordering of ADF.
  This ordering is usually different from the order
  that has been specified in the ADF input that pro-
  duced the TAPE21 being used here.



 ===========================
 L I N E A R   S C A L I N G
 ===========================
  

 Overlap cut-off criterion AO matrix elements:     0.1000000000E-07





                                  ***********************************************
                                  *  NMR spin spin coupling tensor calculation  *
                                  ***********************************************
  

 Nuclear magnetogyric ratios / 1E7 radians/(s T):
 O  (  1):    -3.628
 O  (  2):    -3.628
 O  (  3):    -3.628
 P  (  4):    10.841
 C  (  5):     6.728
 C  (  6):     6.728
 C  (  7):     6.728
 C  (  8):     6.728
 C  (  9):     6.728
 C  ( 10):     6.728
 C  ( 11):     6.728
 C  ( 12):     6.728
 C  ( 13):     6.728
 C  ( 14):     6.728
 C  ( 15):     6.728
 C  ( 16):     6.728
 H  ( 17):    26.752
 H  ( 18):    26.752
 H  ( 19):    26.752
 H  ( 20):    26.752
 H  ( 21):    26.752
 H  ( 22):    26.752
 H  ( 23):    26.752
 H  ( 24):    26.752
 H  ( 25):    26.752
 H  ( 26):    26.752
 H  ( 27):    26.752
 H  ( 28):    26.752
 H  ( 29):    26.752
 H  ( 30):    26.752
 H  ( 31):    26.752
 H  ( 32):    26.752
 H  ( 33):    26.752
 H  ( 34):    26.752
 H  ( 35):    26.752
 H  ( 36):    26.752
 H  ( 37):    26.752
 H  ( 38):    26.752
 H  ( 39):    26.752
 H  ( 40):    26.752
 H  ( 41):    26.752

 Performing the following coupling computations:
 Nucleus   4 (P ) perturbing 
          11 (C ) responding
          32 (H ) responding



 =============================================
 Computation for perturbing ADF-GUI atom: P(2)
 =============================================
  
 
 *** running FC calculation
     computing
     ... matrix elements for perturbing nucleus   4
     ... matrix elements for responding nucleus  11
     ... matrix elements for responding nucleus  32
     ... ZSO / Fermi contact coupling constant(s) 



 ===================================
 CPKS routine for spin-spin coupling  ***  Version 05/08 (scalar)  ***
 ===================================
  
 Using new AO based algorithms for CPKS
    running CPKS for TRIPLET Operator
    using first order VWN potential for LDA perturbation
    Will use LDA kernel
 
 iter.  1 V(1) measure  0.4980686254325E+00
 iter.  2 V(1) measure  0.7737545869804E+00
        2        delta  0.2756859615479E+00
 iter.  3 V(1) measure  0.7753014791550E+00
        3        delta  0.1546892174570E-02
 iter.  4 V(1) measure  0.7753092959462E+00
        4        delta  0.7816791168569E-05
 *** convergence reached



                                                *******************
                                                *  R E S U L T S  *
                                                *******************
  



 ========================================
  Nucleus 4 (P) perturbing nucleus 11 (C)
 ========================================
  
 Internal CPL numbering of atoms:  P(4) perturbing  C(11)
 ADF-GUI atoms:  P(2) perturbing  C(23)
  
 ---------------------------------
   Cartesian Axis Representation  
 ---------------------------------

 ----- k (10^19 kg m-2 s-2 A-2) ----         ------------- j (hz) -------------

 fermi-contact contribution:             
  isotropic    k=      20.846                              j=      25.520
      20.846       0.000       0.000             25.520       0.000       0.000
       0.000      20.846       0.000              0.000      25.520       0.000
       0.000       0.000      20.846              0.000       0.000      25.520

 total calculated spin-spin coupling:    
  isotropic    k=      20.846                              j=      25.520
      20.846       0.000       0.000             25.520       0.000       0.000
       0.000      20.846       0.000              0.000      25.520       0.000
       0.000       0.000      20.846              0.000       0.000      25.520
 
 ---------------------------------
   Principal Axis Representation  
 ---------------------------------

 ----- k (10^19 kg m-2 s-2 A-2) ----         ------------- j (hz) -------------

 fermi-contact contribution:             
  isotropic    k=      20.846                              j=      25.520
      20.846       0.000       0.000             25.520       0.000       0.000
       0.000      20.846       0.000              0.000      25.520       0.000
       0.000       0.000      20.846              0.000       0.000      25.520

 total calculated spin-spin coupling:    
  isotropic    k=      20.846                              j=      25.520
      20.846       0.000       0.000             25.520       0.000       0.000
       0.000      20.846       0.000              0.000      25.520       0.000
       0.000       0.000      20.846              0.000       0.000      25.520
 
 Principal Axis System (u,v,w) expressed in Cartesians:
 (taken as eigenvectors of the symmetric part of the coupling tensor,
  sorted in ascending order of eigenvalues = principal values)
        u         v         w
        1.000     0.000     0.000
        0.000     1.000     0.000
        0.000     0.000     1.000



 ========================================
  Nucleus 4 (P) perturbing nucleus 32 (H)
 ========================================
  
 Internal CPL numbering of atoms:  P(4) perturbing  H(32)
 ADF-GUI atoms:  P(2) perturbing  H(31)
  
 ---------------------------------
   Cartesian Axis Representation  
 ---------------------------------

 ----- k (10^19 kg m-2 s-2 A-2) ----         ------------- j (hz) -------------

 fermi-contact contribution:             
  isotropic    k=       2.662                              j=      12.958
       2.662       0.000       0.000             12.958       0.000       0.000
       0.000       2.662       0.000              0.000      12.958       0.000
       0.000       0.000       2.662              0.000       0.000      12.958

 total calculated spin-spin coupling:    
  isotropic    k=       2.662                              j=      12.958
       2.662       0.000       0.000             12.958       0.000       0.000
       0.000       2.662       0.000              0.000      12.958       0.000
       0.000       0.000       2.662              0.000       0.000      12.958
 
 ---------------------------------
   Principal Axis Representation  
 ---------------------------------

 ----- k (10^19 kg m-2 s-2 A-2) ----         ------------- j (hz) -------------

 fermi-contact contribution:             
  isotropic    k=       2.662                              j=      12.958
       2.662       0.000       0.000             12.958       0.000       0.000
       0.000       2.662       0.000              0.000      12.958       0.000
       0.000       0.000       2.662              0.000       0.000      12.958

 total calculated spin-spin coupling:    
  isotropic    k=       2.662                              j=      12.958
       2.662       0.000       0.000             12.958       0.000       0.000
       0.000       2.662       0.000              0.000      12.958       0.000
       0.000       0.000       2.662              0.000       0.000      12.958
 
 Principal Axis System (u,v,w) expressed in Cartesians:
 (taken as eigenvectors of the symmetric part of the coupling tensor,
  sorted in ascending order of eigenvalues = principal values)
        u         v         w
        1.000     0.000     0.000
        0.000     1.000     0.000
        0.000     0.000     1.000
 *******************************************************************************

                             N M R   E X I T
 NORMAL TERMINATION



 =================
 Timing Statistics
 =================
  
 Total Used :                     CPU=      262.11      System=        0.93     Elapsed=      274.52

 Calls  Section                     ( Mean, Percentage )
 ---------------------------------------------------------------------------------------------------
     3  ><      ................      0.00    0.00             0.00    0.23             0.00    0.00
     1  GENPT   ................      2.29    0.87             0.25   26.91             2.57    0.94
     3  CALFC   ................     48.39   55.39             0.15   47.81            50.72   55.42
     1  FCPT1   ................    114.64   43.74             0.23   24.20           119.74   43.62
     1  FCCPL   ................      0.00    0.00             0.00    0.00             0.00    0.00
     1  JCOUPL  ................      0.00    0.00             0.00    0.10             0.00    0.00
     1  EXIT PROCEDURE .........      0.00    0.00             0.01    0.76             0.05    0.02


 Currently Open Files (EXIT00)
 ====================

 Unit    Access Format  Status   Type       Ident (file)
 -------------------------------------------------------
   3      SEQ    FORM   TRANSP  NORMAL      LOGFILE
                                          ( /home/milias/Work/projects/open-collection/theoretical_chemistry/projects/nmr_diplomovky/derivaty_markerov/derivative_7/ams/nmr_opbe_tz2p-j_good_cosmo-chcl3/der7.nmr_opbe_tz2p-j_good_cosmo-chcl3.logfile )
