

 Parallel Execution: Process Information
 ==============================================================================
 Rank   Node Name                              NodeID   MyNodeRank  NodeMaster
    0   ubuntu-kch                                0          0          0
    1   ubuntu-kch                                0          1         -1
    2   ubuntu-kch                                0          2         -1
    3   ubuntu-kch                                0          3         -1
 ==============================================================================


May use up to 7570MB of RAM as shared memory on node 0

 *******************************************************************************
 *                                                                             *
 *  --------------------------------                                           *
 *   Amsterdam Modeling Suite (AMS)              2021.105                      *
 *  --------------------------------                                           *
 *                                               r97261 2021-09-16             *
 *                                                                             *
 *                                                                             *
 *                              =================                              *
 *                              |               |                              *
 *                              |     A M S     |                              *
 *                              |               |                              *
 *                              =================                              *
 *                                                                             *
 *                                                                             *
 *   Online information and documentation:  https://www.scm.com/support/       *
 *   E-mail:  support@scm.com   info@scm.com                                   *
 *                                                                             *
 *   Scientific publications using AMS results must be properly referenced     *
 *   See the User Manuals (or the web site) for recommended citations          *
 *   The terms and conditions of the End User License Agreement apply to       *
 *   the use of AMS, https://www.scm.com/license-terms/                        *
 *                                                                             *
 **********************  x86_64_linux_intel / intelmpi  ************************
 
 Licensed to: Dr. Miroslav Ilias / Matej Bel University, Department Chemistry, Fac. Natural Sciences / Banska Bystrica / SLOVAKIA
 SCM User ID: u17848
  
 AMS 2021.105  RunTime: Nov25-2021 19:29:25  ShM Nodes: 1  Procs: 4

 AMS jobname: ams
 AMS jobid  : 853191311

 Start   directory: /home/milias/work/projects/open-collection/theoretical_chemistry/projects/nmr_diplomovky/derivaty_markerov/derivative_7_Ivan/ams/nonrel/nmr_opbe_tz2p-j_good_cosmo-chcl3/tmp.milias.188546.0.noindex/
 Results directory: /home/milias/work/projects/open-collection/theoretical_chemistry/projects/nmr_diplomovky/derivaty_markerov/derivative_7_Ivan/ams/nonrel/nmr_opbe_tz2p-j_good_cosmo-chcl3/der7.nmr_opbe_tz2p-j_good_cosmo-chcl3.results/
 Scratch directory: /tmp/amstmp_ams_kid0.853191311/


 Communication costs MPI_COMM_WORLD:      0.249 usec per message,   0.0034 usec per 8-byte item
 Communication costs for intra-node:      0.272 usec per message,   0.0034 usec per 8-byte item

 RNG seed: 1528060801 864563373 371062363 1475461290 711772848 623248751 -583861674 -357771010



                      ************************************************************************
                      *  ADF 2021.105  RunTime: Nov25-2021 19:29:25  ShM Nodes: 1  Procs: 4  *
                      ************************************************************************
  
       ****************************
       * SINGLE POINT CALCULATION *
       ****************************
 
--------
Geometry
--------
Formula: C12H25O3P
Atoms
  Index Symbol   x (angstrom)   y (angstrom)   z (angstrom)
      1      O     3.38145292    -0.49095325     0.04089403       adf.R=1.517
      2      P     2.30640681     0.20397800    -0.97070714       adf.R=1.850
      3      O     1.51868007     1.29811008    -0.03607700       adf.R=1.517
      4      O     1.09458914    -0.90554301    -0.86308312       adf.R=1.517
      5      C     0.40672620     0.72331877     0.70513498       adf.R=1.700
      6      C    -0.11432544    -0.38025039    -0.25858657       adf.R=1.700
      7      C     0.93134079     0.17311343     2.02292073       adf.R=1.700
      8      C    -0.58656289     1.83821372     0.96143913       adf.R=1.700
      9      C    -0.98644649     0.16961402    -1.37781754       adf.R=1.700
     10      C    -0.81540980    -1.52776889     0.43991689       adf.R=1.700
     11      H     0.10772480    -0.15822171     2.65777555       adf.R=1.350
     12      H     1.61840819    -0.65813621     1.86774358       adf.R=1.350
     13      H     1.46644487     0.96738957     2.54589659       adf.R=1.350
     14      H    -0.85482891     2.35614694     0.04167224       adf.R=1.350
     15      H    -1.49514720     1.43801685     1.41710388       adf.R=1.350
     16      H    -0.15393212     2.56287642     1.65311207       adf.R=1.350
     17      H    -1.96081238     0.48541673    -1.00194289       adf.R=1.350
     18      H    -0.51190501     1.01827390    -1.87384065       adf.R=1.350
     19      H    -1.14408706    -0.61666194    -2.11755943       adf.R=1.350
     20      H    -1.69195048    -1.16298641     0.98026029       adf.R=1.350
     21      H    -1.15415585    -2.25522919    -0.29948956       adf.R=1.350
     22      H    -0.15399740    -2.03181211     1.14294713       adf.R=1.350
     23      C     4.76895005    -0.53277628    -0.35630982       adf.R=1.700
     24      C     5.61501638     0.26337952     0.65731433       adf.R=1.700
     25      H     4.49544543    -2.44374078    -1.28469353       adf.R=1.350
     26      H     5.02098162    -2.54365327     0.39873732       adf.R=1.350
     27      C     5.48199050    -0.31063402     2.06647062       adf.R=1.700
     28      C     5.14117211     1.71696598     0.65781186       adf.R=1.700
     29      H     6.17556564    -2.09448643    -0.87039642       adf.R=1.350
     30      C     5.14373437    -1.98950866    -0.53344450       adf.R=1.700
     31      H     4.86354790    -0.02372603    -1.32524002       adf.R=1.350
     32      C     7.08019692     0.22892137     0.22061978       adf.R=1.700
     33      H     5.76007363     2.31438133     1.33201764       adf.R=1.350
     34      H     4.10403331     1.79855499     0.98761170       adf.R=1.350
     35      H     5.21640323     2.15534735    -0.34222865       adf.R=1.350
     36      H     5.87051338    -1.32975548     2.12865538       adf.R=1.350
     37      H     4.43810285    -0.32033139     2.38641071       adf.R=1.350
     38      H     6.04832189     0.30214291     2.77274168       adf.R=1.350
     39      H     7.67175348     0.89185851     0.85682200       adf.R=1.350
     40      H     7.19546286     0.56956297    -0.81274177       adf.R=1.350
     41      H     7.50805872    -0.77233597     0.29961707       adf.R=1.350
 
Total System Charge             0.00000
Bonding info available!
 
 
----------------
ADF Engine Input
----------------
 
 Basis
 Type TZ2P-J
 Core None
 End
 Save TAPE10
 XC
 GGA OPBE
 End
 Relativity
 Level None
 End
 Symmetry NOSYM
 Solvation
 Surf Delley
 Solv name=Chloroform cav0=0.0 cav1=0.0067639
 Charged method=CONJ
 C-Mat POT
 SCF VAR ALL
 CSMRSP
 End
 NumericalQuality Good
 

 Title: *** (NO TITLE) ***

 *** adf ***



 ===========================
 A T T A C H E D   F I L E S
 ===========================
  



 ===============================
 M O D E L   P A R A M E T E R S
 ===============================
  
 DENSITY FUNCTIONAL POTENTIAL (scf)
    LDA:                               VWN                                      
    Gradient Corrections:              OPTX PBEc                               == Not Default ==

 SPIN  (restricted / unrestr.)
    Molecule:                          Restricted                               
    Fragments:                         Restricted                               

 OTHER ASPECTS
    Relativistic Corrections:          ---                                     == Not Default ==

    Nuclear Charge Density Model:      Point Charge Nuclei                      
    Core Treatment:                    Frozen Orbital(s)                        

    Hyperfine or Zeeman Interaction:   ---                                      

 SOLVATION
-------------------------------------------

  The Delley construction of COSMO surface surface is calculated

       Division Level for Surface Triangles (NDIV)                  3
       Final Division Level for Triangles (NFDIV)                   1
       Radius of the Solvent (RSOL)                           3.17000 angstr
  Dielectric Constant (EPSL)                                  4.80000

       COSMO equation is solved iteratively-               conjugate-gradient

       Maximun of Iterations for Charges (NCIX)                  1000
       Criterion for Charge convergence (CCNV)                1.0E-08

  COSMO charges included variationally in SCF

       COSMO included at every SCF cycle

  Geometry-dependent empirical factor                         0.00000

  C-Matrix calculated in cspmtx

  In cspmtx, C-Matrix calculated using fitted potential

-------------------------------------------



 Fragment File(s)
 ----------------
 O:
         file : /home/milias/work/projects/open-collection/theoretical_chemistry/projects/nmr_diplomovky/derivaty_markerov/derivative_7_Ivan/ams/nonrel/nmr_opbe_tz2p-j_good_cosmo-chcl3/der7.nmr_opbe_tz2p-j_good_cosmo-chcl3.results/t21.FFA1C97.O
         jobid: 0
         title: Oxygen (TZ2P-J)
 P:
         file : /home/milias/work/projects/open-collection/theoretical_chemistry/projects/nmr_diplomovky/derivaty_markerov/derivative_7_Ivan/ams/nonrel/nmr_opbe_tz2p-j_good_cosmo-chcl3/der7.nmr_opbe_tz2p-j_good_cosmo-chcl3.results/t21.4E7E8C9D.P
         jobid: 0
         title: Phosphorus (TZ2P-J)
 C:
         file : /home/milias/work/projects/open-collection/theoretical_chemistry/projects/nmr_diplomovky/derivaty_markerov/derivative_7_Ivan/ams/nonrel/nmr_opbe_tz2p-j_good_cosmo-chcl3/der7.nmr_opbe_tz2p-j_good_cosmo-chcl3.results/t21.1CF45046.C
         jobid: 0
         title: Carbon (TZ2P-J)
 H:
         file : /home/milias/work/projects/open-collection/theoretical_chemistry/projects/nmr_diplomovky/derivaty_markerov/derivative_7_Ivan/ams/nonrel/nmr_opbe_tz2p-j_good_cosmo-chcl3/der7.nmr_opbe_tz2p-j_good_cosmo-chcl3.results/t21.6B03DF84.H
         jobid: 0
         title: Hydrogen (TZ2P-J)



 ===============
 G E O M E T R Y  ***  3D  Molecule  ***
 ===============
  

 ATOMS
 =====                            X Y Z                    CHARGE                     RADIUS
                                (Angstrom)             Nucl     +Core       At.Mass (Angstrom)
                       --------------------------    ----------------       ------- ----------
    1  O               3.3815   -0.4910    0.0409      8.00      8.00       15.9949    1.5170
    2  P               2.3064    0.2040   -0.9707     15.00     15.00       30.9738    1.8500
    3  O               1.5187    1.2981   -0.0361      8.00      8.00       15.9949    1.5170
    4  O               1.0946   -0.9055   -0.8631      8.00      8.00       15.9949    1.5170
    5  C               0.4067    0.7233    0.7051      6.00      6.00       12.0000    1.7000
    6  C              -0.1143   -0.3803   -0.2586      6.00      6.00       12.0000    1.7000
    7  C               0.9313    0.1731    2.0229      6.00      6.00       12.0000    1.7000
    8  C              -0.5866    1.8382    0.9614      6.00      6.00       12.0000    1.7000
    9  C              -0.9864    0.1696   -1.3778      6.00      6.00       12.0000    1.7000
   10  C              -0.8154   -1.5278    0.4399      6.00      6.00       12.0000    1.7000
   11  H               0.1077   -0.1582    2.6578      1.00      1.00        1.0078    1.3500
   12  H               1.6184   -0.6581    1.8677      1.00      1.00        1.0078    1.3500
   13  H               1.4664    0.9674    2.5459      1.00      1.00        1.0078    1.3500
   14  H              -0.8548    2.3561    0.0417      1.00      1.00        1.0078    1.3500
   15  H              -1.4951    1.4380    1.4171      1.00      1.00        1.0078    1.3500
   16  H              -0.1539    2.5629    1.6531      1.00      1.00        1.0078    1.3500
   17  H              -1.9608    0.4854   -1.0019      1.00      1.00        1.0078    1.3500
   18  H              -0.5119    1.0183   -1.8738      1.00      1.00        1.0078    1.3500
   19  H              -1.1441   -0.6167   -2.1176      1.00      1.00        1.0078    1.3500
   20  H              -1.6920   -1.1630    0.9803      1.00      1.00        1.0078    1.3500
   21  H              -1.1542   -2.2552   -0.2995      1.00      1.00        1.0078    1.3500
   22  H              -0.1540   -2.0318    1.1429      1.00      1.00        1.0078    1.3500
   23  C               4.7690   -0.5328   -0.3563      6.00      6.00       12.0000    1.7000
   24  C               5.6150    0.2634    0.6573      6.00      6.00       12.0000    1.7000
   25  H               4.4954   -2.4437   -1.2847      1.00      1.00        1.0078    1.3500
   26  H               5.0210   -2.5437    0.3987      1.00      1.00        1.0078    1.3500
   27  C               5.4820   -0.3106    2.0665      6.00      6.00       12.0000    1.7000
   28  C               5.1412    1.7170    0.6578      6.00      6.00       12.0000    1.7000
   29  H               6.1756   -2.0945   -0.8704      1.00      1.00        1.0078    1.3500
   30  C               5.1437   -1.9895   -0.5334      6.00      6.00       12.0000    1.7000
   31  H               4.8635   -0.0237   -1.3252      1.00      1.00        1.0078    1.3500
   32  C               7.0802    0.2289    0.2206      6.00      6.00       12.0000    1.7000
   33  H               5.7601    2.3144    1.3320      1.00      1.00        1.0078    1.3500
   34  H               4.1040    1.7986    0.9876      1.00      1.00        1.0078    1.3500
   35  H               5.2164    2.1553   -0.3422      1.00      1.00        1.0078    1.3500
   36  H               5.8705   -1.3298    2.1287      1.00      1.00        1.0078    1.3500
   37  H               4.4381   -0.3203    2.3864      1.00      1.00        1.0078    1.3500
   38  H               6.0483    0.3021    2.7727      1.00      1.00        1.0078    1.3500
   39  H               7.6718    0.8919    0.8568      1.00      1.00        1.0078    1.3500
   40  H               7.1955    0.5696   -0.8127      1.00      1.00        1.0078    1.3500
   41  H               7.5081   -0.7723    0.2996      1.00      1.00        1.0078    1.3500


 FRAGMENTS
 =========                                     Atoms in this Fragment     Cart. coord.s (Angstrom)
                                               -------------------------------------------------------
    1  O                                                 1  O            3.3815   -0.4910    0.0409
    2  O                                                 3  O            1.5187    1.2981   -0.0361
    3  O                                                 4  O            1.0946   -0.9055   -0.8631
    4  P                                                 2  P            2.3064    0.2040   -0.9707
    5  C                                                 5  C            0.4067    0.7233    0.7051
    6  C                                                 6  C           -0.1143   -0.3803   -0.2586
    7  C                                                 7  C            0.9313    0.1731    2.0229
    8  C                                                 8  C           -0.5866    1.8382    0.9614
    9  C                                                 9  C           -0.9864    0.1696   -1.3778
   10  C                                                10  C           -0.8154   -1.5278    0.4399
   11  C                                                23  C            4.7690   -0.5328   -0.3563
   12  C                                                24  C            5.6150    0.2634    0.6573
   13  C                                                27  C            5.4820   -0.3106    2.0665
   14  C                                                28  C            5.1412    1.7170    0.6578
   15  C                                                30  C            5.1437   -1.9895   -0.5334
   16  C                                                32  C            7.0802    0.2289    0.2206
   17  H                                                11  H            0.1077   -0.1582    2.6578
   18  H                                                12  H            1.6184   -0.6581    1.8677
   19  H                                                13  H            1.4664    0.9674    2.5459
   20  H                                                14  H           -0.8548    2.3561    0.0417
   21  H                                                15  H           -1.4951    1.4380    1.4171
   22  H                                                16  H           -0.1539    2.5629    1.6531
   23  H                                                17  H           -1.9608    0.4854   -1.0019
   24  H                                                18  H           -0.5119    1.0183   -1.8738
   25  H                                                19  H           -1.1441   -0.6167   -2.1176
   26  H                                                20  H           -1.6920   -1.1630    0.9803
   27  H                                                21  H           -1.1542   -2.2552   -0.2995
   28  H                                                22  H           -0.1540   -2.0318    1.1429
   29  H                                                25  H            4.4954   -2.4437   -1.2847
   30  H                                                26  H            5.0210   -2.5437    0.3987
   31  H                                                29  H            6.1756   -2.0945   -0.8704
   32  H                                                31  H            4.8635   -0.0237   -1.3252
   33  H                                                33  H            5.7601    2.3144    1.3320
   34  H                                                34  H            4.1040    1.7986    0.9876
   35  H                                                35  H            5.2164    2.1553   -0.3422
   36  H                                                36  H            5.8705   -1.3298    2.1287
   37  H                                                37  H            4.4381   -0.3203    2.3864
   38  H                                                38  H            6.0483    0.3021    2.7727
   39  H                                                39  H            7.6718    0.8919    0.8568
   40  H                                                40  H            7.1955    0.5696   -0.8127
   41  H                                                41  H            7.5081   -0.7723    0.2996



 =====================================
 S Y M M E T R Y ,   E L E C T R O N S
 =====================================
  
 Symmetry: NOSYM

 Irreducible Representations, including subspecies
 -------------------------------------------------
 A


 Configuration of Valence Electrons
 ==================================
 ( determined in the SCF procedure )

 Total:   136

 Net Charge: 0 (Nuclei minus Electrons)

 Aufbau principle for MO occupations will be applied through SCF cycle no.     150
 Thereafter, the program will assign electrons to MOs that are spatially
 similar to the occupied MOs in a "reference" cycle ("KeepOrbitals").
 The reference cycle is always the PREVIOUS cycle: it will evolve with
 the SCF procedure.
1
 ***************************************************************************************************



                                      ****************************************
                                      *  B U I L D : (Fragments, Functions)  *
                                      ****************************************
  

 Total nr. of (C)SFOs (summation over all irreps) :   911

 Specify PRINT SFO in the input file to get a full list

 Nr. of SFOs for ir.rep.           A :   911



 ================================
 (Slater-type)  F U N C T I O N S  ***  (Basis and Fit)  ***
 ================================
  

 Atom Type    1  (O)
 ==============

 Valence Basis Sets:  15
 -----------------------
   1 S  800.000000
   1 S  160.000000
   1 S   40.000000
   1 S   16.000000
   1 S    9.800000
   1 S    6.800000
   2 S    7.580000
   2 S    2.880000
   2 S    1.720000
   2 P    9.800000
   2 P    4.080000
   2 P    2.080000
   2 P    1.120000
   3 D    2.000000
   4 F    3.000000

 Atom Type    2  (P)
 ==============

 Valence Basis Sets:  19
 -----------------------
   1 S 1500.000000
   1 S  300.000000
   1 S   75.000000
   1 S   30.000000
   1 S   18.000000
   1 S   13.350000
   2 S    5.600000
   2 S    4.050000
   2 P   18.000000
   2 P    7.450000
   2 P    4.100000
   3 S    2.700000
   3 S    1.850000
   3 S    1.300000
   3 P    2.300000
   3 P    1.350000
   3 P    0.850000
   3 D    1.900000
   4 F    2.000000

 Atom Type    3  (C)
 ==============

 Valence Basis Sets:  15
 -----------------------
   1 S  600.000000
   1 S  120.000000
   1 S   30.000000
   1 S   12.000000
   1 S    7.680000
   1 S    5.000000
   2 S    1.280000
   2 S    2.100000
   2 S    4.600000
   2 P    7.680000
   2 P    0.820000
   2 P    1.480000
   2 P    2.940000
   3 D    2.200000
   4 F    3.300000

 Atom Type    4  (H)
 ==============

 Valence Basis Sets:   9
 -----------------------
   1 S  100.000000
   1 S   25.000000
   1 S    7.500000
   1 S    3.000000
   1 S    0.690000
   1 S    0.920000
   1 S    1.580000
   2 P    1.250000
   3 D    2.500000


 BAS: List of all Elementary Cartesian Basis Functions
 =====================================================

 The numbering in the list below (to the right of the function characteristics) is referred
 to in print-outs of MO eigenvectors and Mulliken populations in the BAS representation
 (as contrasted to the SFO representation).

 Notes:
 1. The functions are characterized by a polynomial prefactor (powers of x,y,z and r) and
    an exponential decay factor alpha.
 2. Since the basis sets are specific for an atom TYPE, the individual functions occur on
    all atoms of that type.
 3. The word 'Core' in the left margin signals that it is a Core Function (CF) : not a
    degree of freedom in the valence set, but only used to ensure orthogonalization of
    the other valence basis functions on the frozen Core Orbitals.


 (power of) X  Y  Z  R     Alpha  on Atom
            ==========     =====     ==========

 O                                    1    2    3
                                  ---------------------------------------------------------------------------
            0  0  0  0   800.000      1   38   75
            0  0  0  0   160.000      2   39   76
            0  0  0  0    40.000      3   40   77
            0  0  0  0    16.000      4   41   78
            0  0  0  0     9.800      5   42   79
            0  0  0  0     6.800      6   43   80
            0  0  0  1     7.580      7   44   81
            0  0  0  1     2.880      8   45   82
            0  0  0  1     1.720      9   46   83
            1  0  0  0     9.800     10   47   84
            0  1  0  0     9.800     11   48   85
            0  0  1  0     9.800     12   49   86
            1  0  0  0     4.080     13   50   87
            0  1  0  0     4.080     14   51   88
            0  0  1  0     4.080     15   52   89
            1  0  0  0     2.080     16   53   90
            0  1  0  0     2.080     17   54   91
            0  0  1  0     2.080     18   55   92
            1  0  0  0     1.120     19   56   93
            0  1  0  0     1.120     20   57   94
            0  0  1  0     1.120     21   58   95
            2  0  0  0     2.000     22   59   96
            1  1  0  0     2.000     23   60   97
            1  0  1  0     2.000     24   61   98
            0  2  0  0     2.000     25   62   99
            0  1  1  0     2.000     26   63  100
            0  0  2  0     2.000     27   64  101
            3  0  0  0     3.000     28   65  102
            2  1  0  0     3.000     29   66  103
            2  0  1  0     3.000     30   67  104
            1  2  0  0     3.000     31   68  105
            1  1  1  0     3.000     32   69  106
            1  0  2  0     3.000     33   70  107
            0  3  0  0     3.000     34   71  108
            0  2  1  0     3.000     35   72  109
            0  1  2  0     3.000     36   73  110
            0  0  3  0     3.000     37   74  111

 P                                    4
                                  ---------------------------------------------------------------------------
            0  0  0  0  1500.000    112
            0  0  0  0   300.000    113
            0  0  0  0    75.000    114
            0  0  0  0    30.000    115
            0  0  0  0    18.000    116
            0  0  0  0    13.350    117
            0  0  0  1     5.600    118
            0  0  0  1     4.050    119
            1  0  0  0    18.000    120
            0  1  0  0    18.000    121
            0  0  1  0    18.000    122
            1  0  0  0     7.450    123
            0  1  0  0     7.450    124
            0  0  1  0     7.450    125
            1  0  0  0     4.100    126
            0  1  0  0     4.100    127
            0  0  1  0     4.100    128
            0  0  0  2     2.700    129
            0  0  0  2     1.850    130
            0  0  0  2     1.300    131
            1  0  0  1     2.300    132
            0  1  0  1     2.300    133
            0  0  1  1     2.300    134
            1  0  0  1     1.350    135
            0  1  0  1     1.350    136
            0  0  1  1     1.350    137
            1  0  0  1     0.850    138
            0  1  0  1     0.850    139
            0  0  1  1     0.850    140
            2  0  0  0     1.900    141
            1  1  0  0     1.900    142
            1  0  1  0     1.900    143
            0  2  0  0     1.900    144
            0  1  1  0     1.900    145
            0  0  2  0     1.900    146
            3  0  0  0     2.000    147
            2  1  0  0     2.000    148
            2  0  1  0     2.000    149
            1  2  0  0     2.000    150
            1  1  1  0     2.000    151
            1  0  2  0     2.000    152
            0  3  0  0     2.000    153
            0  2  1  0     2.000    154
            0  1  2  0     2.000    155
            0  0  3  0     2.000    156

 C                                    5    6    7    8    9   10   11   12   13   14   15   16
                                  ---------------------------------------------------------------------------
            0  0  0  0   600.000    157  194  231  268  305  342  379  416  453  490  527  564
            0  0  0  0   120.000    158  195  232  269  306  343  380  417  454  491  528  565
            0  0  0  0    30.000    159  196  233  270  307  344  381  418  455  492  529  566
            0  0  0  0    12.000    160  197  234  271  308  345  382  419  456  493  530  567
            0  0  0  0     7.680    161  198  235  272  309  346  383  420  457  494  531  568
            0  0  0  0     5.000    162  199  236  273  310  347  384  421  458  495  532  569
            0  0  0  1     1.280    163  200  237  274  311  348  385  422  459  496  533  570
            0  0  0  1     2.100    164  201  238  275  312  349  386  423  460  497  534  571
            0  0  0  1     4.600    165  202  239  276  313  350  387  424  461  498  535  572
            1  0  0  0     7.680    166  203  240  277  314  351  388  425  462  499  536  573
            0  1  0  0     7.680    167  204  241  278  315  352  389  426  463  500  537  574
            0  0  1  0     7.680    168  205  242  279  316  353  390  427  464  501  538  575
            1  0  0  0     0.820    169  206  243  280  317  354  391  428  465  502  539  576
            0  1  0  0     0.820    170  207  244  281  318  355  392  429  466  503  540  577
            0  0  1  0     0.820    171  208  245  282  319  356  393  430  467  504  541  578
            1  0  0  0     1.480    172  209  246  283  320  357  394  431  468  505  542  579
            0  1  0  0     1.480    173  210  247  284  321  358  395  432  469  506  543  580
            0  0  1  0     1.480    174  211  248  285  322  359  396  433  470  507  544  581
            1  0  0  0     2.940    175  212  249  286  323  360  397  434  471  508  545  582
            0  1  0  0     2.940    176  213  250  287  324  361  398  435  472  509  546  583
            0  0  1  0     2.940    177  214  251  288  325  362  399  436  473  510  547  584
            2  0  0  0     2.200    178  215  252  289  326  363  400  437  474  511  548  585
            1  1  0  0     2.200    179  216  253  290  327  364  401  438  475  512  549  586
            1  0  1  0     2.200    180  217  254  291  328  365  402  439  476  513  550  587
            0  2  0  0     2.200    181  218  255  292  329  366  403  440  477  514  551  588
            0  1  1  0     2.200    182  219  256  293  330  367  404  441  478  515  552  589
            0  0  2  0     2.200    183  220  257  294  331  368  405  442  479  516  553  590
            3  0  0  0     3.300    184  221  258  295  332  369  406  443  480  517  554  591
            2  1  0  0     3.300    185  222  259  296  333  370  407  444  481  518  555  592
            2  0  1  0     3.300    186  223  260  297  334  371  408  445  482  519  556  593
            1  2  0  0     3.300    187  224  261  298  335  372  409  446  483  520  557  594
            1  1  1  0     3.300    188  225  262  299  336  373  410  447  484  521  558  595
            1  0  2  0     3.300    189  226  263  300  337  374  411  448  485  522  559  596
            0  3  0  0     3.300    190  227  264  301  338  375  412  449  486  523  560  597
            0  2  1  0     3.300    191  228  265  302  339  376  413  450  487  524  561  598
            0  1  2  0     3.300    192  229  266  303  340  377  414  451  488  525  562  599
            0  0  3  0     3.300    193  230  267  304  341  378  415  452  489  526  563  600

 H                                   17   18   19   20   21   22   23   24   25   26   27   28   29   30   31
                                     32   33   34   35   36   37   38   39   40   41
                                  ---------------------------------------------------------------------------
            0  0  0  0   100.000    601  617  633  649  665  681  697  713  729  745  761  777  793  809  825
                                    841  857  873  889  905  921  937  953  969  985
            0  0  0  0    25.000    602  618  634  650  666  682  698  714  730  746  762  778  794  810  826
                                    842  858  874  890  906  922  938  954  970  986
            0  0  0  0     7.500    603  619  635  651  667  683  699  715  731  747  763  779  795  811  827
                                    843  859  875  891  907  923  939  955  971  987
            0  0  0  0     3.000    604  620  636  652  668  684  700  716  732  748  764  780  796  812  828
                                    844  860  876  892  908  924  940  956  972  988
            0  0  0  0     0.690    605  621  637  653  669  685  701  717  733  749  765  781  797  813  829
                                    845  861  877  893  909  925  941  957  973  989
            0  0  0  0     0.920    606  622  638  654  670  686  702  718  734  750  766  782  798  814  830
                                    846  862  878  894  910  926  942  958  974  990
            0  0  0  0     1.580    607  623  639  655  671  687  703  719  735  751  767  783  799  815  831
                                    847  863  879  895  911  927  943  959  975  991
            1  0  0  0     1.250    608  624  640  656  672  688  704  720  736  752  768  784  800  816  832
                                    848  864  880  896  912  928  944  960  976  992
            0  1  0  0     1.250    609  625  641  657  673  689  705  721  737  753  769  785  801  817  833
                                    849  865  881  897  913  929  945  961  977  993
            0  0  1  0     1.250    610  626  642  658  674  690  706  722  738  754  770  786  802  818  834
                                    850  866  882  898  914  930  946  962  978  994
            2  0  0  0     2.500    611  627  643  659  675  691  707  723  739  755  771  787  803  819  835
                                    851  867  883  899  915  931  947  963  979  995
            1  1  0  0     2.500    612  628  644  660  676  692  708  724  740  756  772  788  804  820  836
                                    852  868  884  900  916  932  948  964  980  996
            1  0  1  0     2.500    613  629  645  661  677  693  709  725  741  757  773  789  805  821  837
                                    853  869  885  901  917  933  949  965  981  997
            0  2  0  0     2.500    614  630  646  662  678  694  710  726  742  758  774  790  806  822  838
                                    854  870  886  902  918  934  950  966  982  998
            0  1  1  0     2.500    615  631  647  663  679  695  711  727  743  759  775  791  807  823  839
                                    855  871  887  903  919  935  951  967  983  999
            0  0  2  0     2.500    616  632  648  664  680  696  712  728  744  760  776  792  808  824  840
                                    856  872  888  904  920  936  952  968  984 1000

 Total number of charge fitting functions (nprimf)      5494
 Total number of Cartesian basis functions (naos)       1000
 Total number of Cartesian core functions  (ncos)          0

1
 ***************************************************************************************************



                                              ***********************
                                              *  T E C H N I C A L  *
                                              ***********************
  



 =============================================================
 P A R A L L E L I Z A T I O N  and  V E C T O R I Z A T I O N
 =============================================================
  
 Nr of parallel processes:                                4
 Maximum vector length in NumInt loops:                 128



 =====================
 S C F   U P D A T E S
 =====================
  
 Max. nr. of cycles:                               300
 Convergence criterion:                              0.0000010000
   secondary criterion:                              0.0010000000

 Mix parameter (when DIIS does not apply):           0.2000000000
 Mixed ADIIS+SDIIS will be used                  
    Max number of expansion vectors:                10
    Pure ADIIS when Max([F,P]) is above              0.1000000000
    Pure SDIIS when Max([F,P]) is below              0.0010000000
 Automatic ElectronSmearing (in case of problematic SCF convergence) disabled



 =================
 P R E C I S I O N  ***  (General: NumInt, NeglectFunctionTails, ...)  ***
 =================
  

 NumInt:           Target precision:                 6.0000000000
 -------           Initial precision:                6.0000000000
                   Min. precision (optimization):    6.0000000000

 Neglect Functions:          Basis functions:        0.1000000000E-07
 ------------------          Fit functions:          0.1000000000E-07



 ===========================
 L I N E A R   S C A L I N G
 ===========================
  

 Cut-off radii density fit:                        0.1000000000E-09
 Overlap cut-off criterion AO matrix elements:     0.1000000000E-07
 Cut-offs for Coulomb potential and fitted density:0.1000000000E-09
 Cut-off criterion for Coulomb multipole terms:    0.1000000000E-09
 Progressive Convergence parameter:                 0.000000000    
1
 ***************************************************************************************************



                                            ***************************
                                            *  C O M P U T A T I O N  *
                                            ***************************
  

 Number of elements of the density matrix on this node (used, total):    125231    500500



 ===========================================
 Numerical Integration : Fuzzy Cells (Becke)
 ===========================================
  
 Becke grid quality: GOOD           
  
 Lebedev angular grid order:             min:  11 max:  31
 Nr. of radial points:                   min: 112 max: 222

 Total nr. of points:    1257361
 Nr. of blocks:             9824
 Block length:               128
 Nr. of dummy points:        111


 Test of Precision of the Numerical Integration Grid
 ===================================================

 Integral of the Total Core Density:                   0.00000000000000


 -------------------------------------------
  COSMO surface
  Area             =          980.254
  Volume           =         2234.909
  Number of Points =         2307
 -------------------------------------------



 ========================
 Density Fitting (zlmFit)
 ========================
  
 ZlmFit Fit Quality: GOOD           
  
 Max L-expansion:                        min:   8 max:   9
 Nr. of radial interpolation points:     min: 180 max: 378



 =====
 S C F  ***  ScaSCF  ***
 =====
  
 Initial density matrix is calculated as sum of fragments

 CYCLE    1
 SCF Error: norm([F,P])=     10.456703001791, max([F,P])=      1.045857875461
 orbitals (Q,E):
 ---------------
 A :59...78          ( 2.00    -0.4950)  ( 2.00    -0.4903)  ( 2.00    -0.4881)  ( 2.00    -0.4531)
                     ( 2.00    -0.4470)  ( 2.00    -0.4440)  ( 2.00    -0.4354)  ( 2.00    -0.4248)
                     ( 2.00    -0.3972)  ( 2.00    -0.3065)  ( 0.00    -0.0951)  ( 0.00    -0.0836)
                     ( 0.00    -0.0776)  ( 0.00    -0.0749)  ( 0.00    -0.0707)  ( 0.00    -0.0493)
                     ( 0.00    -0.0444)  ( 0.00    -0.0433)  ( 0.00    -0.0395)  ( 0.00    -0.0365)

 CYCLE    2
   MIX coefficients:  0.8000  0.2000
 SCF Error: norm([F,P])=      1.707707457595, max([F,P])=      0.191545320097
 orbitals (Q,E):
 ---------------
 A :59...69          ( 2.00    -0.4264)  ( 2.00    -0.4159)  ( 2.00    -0.4135)  ( 2.00    -0.3926)
                     ( 2.00    -0.3878)  ( 2.00    -0.3836)  ( 2.00    -0.3764)  ( 2.00    -0.3620)
                     ( 2.00    -0.3336)  ( 2.00    -0.2802)  ( 0.00    -0.0686)

 CYCLE    3
  SDIIS (wt  0.000): -1.0424  2.0424
 A-DIIS (wt  1.000):  0.0000  1.0000
  DIIS coefficients:  0.0000  1.0000
 SCF Error: norm([F,P])=      0.911943402504, max([F,P])=      0.099189488958
 orbitals (Q,E):
 ---------------
 A :59...69          ( 2.00    -0.2369)  ( 2.00    -0.2225)  ( 2.00    -0.2186)  ( 2.00    -0.2142)
                     ( 2.00    -0.2011)  ( 2.00    -0.1900)  ( 2.00    -0.1856)  ( 2.00    -0.1749)
                     ( 2.00    -0.1652)  ( 2.00    -0.1505)  ( 0.00     0.0101)

 CYCLE    4
  SDIIS (wt  0.000):  0.1204  0.4377  0.4419
 A-DIIS (wt  1.000):  0.0000  0.6629  0.3371
  DIIS coefficients:  0.0000  0.6629  0.3371
 SCF Error: norm([F,P])=      1.355134012329, max([F,P])=      0.163546223495
 orbitals (Q,E):
 ---------------
 A :59...69          ( 2.00    -0.2985)  ( 2.00    -0.2870)  ( 2.00    -0.2820)  ( 2.00    -0.2777)
                     ( 2.00    -0.2739)  ( 2.00    -0.2651)  ( 2.00    -0.2608)  ( 2.00    -0.2485)
                     ( 2.00    -0.2249)  ( 2.00    -0.2021)  ( 0.00    -0.0035)

 CYCLE    5
  SDIIS (wt  0.774):  0.0662  0.1822  0.1332  0.6184
 A-DIIS (wt  0.226):  0.0000  0.0000  0.0000  1.0000
  DIIS coefficients:  0.0512  0.1410  0.1031  0.7047
 SCF Error: norm([F,P])=      0.209314883743, max([F,P])=      0.023408261128
 orbitals (Q,E):
 ---------------
 A :59...69          ( 2.00    -0.3112)  ( 2.00    -0.2944)  ( 2.00    -0.2896)  ( 2.00    -0.2879)
                     ( 2.00    -0.2840)  ( 2.00    -0.2737)  ( 2.00    -0.2698)  ( 2.00    -0.2536)
                     ( 2.00    -0.2287)  ( 2.00    -0.2066)  ( 0.00    -0.0081)

 CYCLE    6
  SDIIS (wt  0.790):  0.0181  0.0525  0.0199  0.4576  0.4520
 A-DIIS (wt  0.210):  0.0000  0.0000  0.0000  0.2629  0.7371
  DIIS coefficients:  0.0143  0.0415  0.0157  0.4167  0.5118
 SCF Error: norm([F,P])=      0.133576074901, max([F,P])=      0.021784852508
 orbitals (Q,E):
 ---------------
 A :59...69          ( 2.00    -0.3101)  ( 2.00    -0.2951)  ( 2.00    -0.2902)  ( 2.00    -0.2866)
                     ( 2.00    -0.2833)  ( 2.00    -0.2742)  ( 2.00    -0.2701)  ( 2.00    -0.2568)
                     ( 2.00    -0.2325)  ( 2.00    -0.2097)  ( 0.00    -0.0090)

 CYCLE    7
  SDIIS (wt  0.880): -0.0085  0.0331 -0.0020  0.2217  0.3338  0.4219
 A-DIIS (wt  0.120):  0.0000  0.0000  0.0000  0.0000  0.0567  0.9433
  DIIS coefficients: -0.0075  0.0291 -0.0017  0.1952  0.3006  0.4842
 SCF Error: norm([F,P])=      0.047888653099, max([F,P])=      0.012844966165
 orbitals (Q,E):
 ---------------
 A :59...69          ( 2.00    -0.3093)  ( 2.00    -0.2944)  ( 2.00    -0.2896)  ( 2.00    -0.2865)
                     ( 2.00    -0.2831)  ( 2.00    -0.2736)  ( 2.00    -0.2695)  ( 2.00    -0.2547)
                     ( 2.00    -0.2306)  ( 2.00    -0.2074)  ( 0.00    -0.0077)

 CYCLE    8
  SDIIS (wt  0.955): -0.0027  0.0059 -0.0026  0.0667  0.1278  0.3447  0.4601
 A-DIIS (wt  0.045):  0.0000  0.0000  0.0000  0.0000  0.0000  0.2122  0.7878
  DIIS coefficients: -0.0025  0.0057 -0.0025  0.0637  0.1221  0.3388  0.4747
 SCF Error: norm([F,P])=      0.020993679970, max([F,P])=      0.005414937589
 orbitals (Q,E):
 ---------------
 A :59...69          ( 2.00    -0.3096)  ( 2.00    -0.2942)  ( 2.00    -0.2894)  ( 2.00    -0.2864)
                     ( 2.00    -0.2830)  ( 2.00    -0.2735)  ( 2.00    -0.2696)  ( 2.00    -0.2551)
                     ( 2.00    -0.2308)  ( 2.00    -0.2077)  ( 0.00    -0.0079)

 CYCLE    9
  SDIIS (wt  1.000):  0.0009 -0.0014 -0.0007  0.0217  0.0470  0.1682  0.2909  0.4735
  DIIS coefficients:  0.0009 -0.0014 -0.0007  0.0217  0.0470  0.1682  0.2909  0.4735
 SCF Error: norm([F,P])=      0.003997036013, max([F,P])=      0.000658894450
 orbitals (Q,E):
 ---------------
 A :59...69          ( 2.00    -0.3096)  ( 2.00    -0.2944)  ( 2.00    -0.2896)  ( 2.00    -0.2864)
                     ( 2.00    -0.2830)  ( 2.00    -0.2736)  ( 2.00    -0.2695)  ( 2.00    -0.2552)
                     ( 2.00    -0.2310)  ( 2.00    -0.2079)  ( 0.00    -0.0080)

 CYCLE   10
  SDIIS (wt  1.000):  0.0002 -0.0008 -0.0002 -0.0003  0.0010  0.0196  0.0607  0.2458  0.6739
  DIIS coefficients:  0.0002 -0.0008 -0.0002 -0.0003  0.0010  0.0196  0.0607  0.2458  0.6739
 SCF Error: norm([F,P])=      0.001048738093, max([F,P])=      0.000149701961
 orbitals (Q,E):
 ---------------
 A :59...69          ( 2.00    -0.3095)  ( 2.00    -0.2944)  ( 2.00    -0.2896)  ( 2.00    -0.2864)
                     ( 2.00    -0.2830)  ( 2.00    -0.2736)  ( 2.00    -0.2696)  ( 2.00    -0.2552)
                     ( 2.00    -0.2309)  ( 2.00    -0.2079)  ( 0.00    -0.0080)

 CYCLE   11
  SDIIS (wt  1.000):  0.0001 -0.0004 -0.0000 -0.0013 -0.0018  0.0004  0.0136  0.0993  0.3284  0.5616
  DIIS coefficients:  0.0001 -0.0004 -0.0000 -0.0013 -0.0018  0.0004  0.0136  0.0993  0.3284  0.5616
 SCF Error: norm([F,P])=      0.000268164460, max([F,P])=      0.000042335209
 orbitals (Q,E):
 ---------------
 A :59...69          ( 2.00    -0.3095)  ( 2.00    -0.2943)  ( 2.00    -0.2896)  ( 2.00    -0.2864)
                     ( 2.00    -0.2830)  ( 2.00    -0.2736)  ( 2.00    -0.2695)  ( 2.00    -0.2552)
                     ( 2.00    -0.2309)  ( 2.00    -0.2079)  ( 0.00    -0.0080)

 CYCLE   12
  SDIIS (wt  1.000): -0.0001 -0.0000 -0.0006 -0.0009 -0.0009  0.0033  0.0379  0.1294  0.3037  0.5282
  DIIS coefficients: -0.0001 -0.0000 -0.0006 -0.0009 -0.0009  0.0033  0.0379  0.1294  0.3037  0.5282
 SCF Error: norm([F,P])=      0.000086426942, max([F,P])=      0.000013462908
 orbitals (Q,E):
 ---------------
 A :59...69          ( 2.00    -0.3095)  ( 2.00    -0.2943)  ( 2.00    -0.2896)  ( 2.00    -0.2864)
                     ( 2.00    -0.2830)  ( 2.00    -0.2736)  ( 2.00    -0.2695)  ( 2.00    -0.2552)
                     ( 2.00    -0.2309)  ( 2.00    -0.2079)  ( 0.00    -0.0080)

 CYCLE   13
  SDIIS (wt  1.000):  0.0000 -0.0001 -0.0002 -0.0006 -0.0002  0.0081  0.0266  0.1109  0.3736  0.4818
  DIIS coefficients:  0.0000 -0.0001 -0.0002 -0.0006 -0.0002  0.0081  0.0266  0.1109  0.3736  0.4818
 SCF Error: norm([F,P])=      0.000046962452, max([F,P])=      0.000009570109
 orbitals (Q,E):
 ---------------
 A :59...69          ( 2.00    -0.3095)  ( 2.00    -0.2943)  ( 2.00    -0.2896)  ( 2.00    -0.2864)
                     ( 2.00    -0.2830)  ( 2.00    -0.2736)  ( 2.00    -0.2695)  ( 2.00    -0.2552)
                     ( 2.00    -0.2309)  ( 2.00    -0.2079)  ( 0.00    -0.0080)

 CYCLE   14
  SDIIS (wt  1.000):  0.0000  0.0000 -0.0001 -0.0001  0.0009  0.0018  0.0248  0.1293  0.2588  0.5846
  DIIS coefficients:  0.0000  0.0000 -0.0001 -0.0001  0.0009  0.0018  0.0248  0.1293  0.2588  0.5846
 SCF Error: norm([F,P])=      0.000011909035, max([F,P])=      0.000002057355
 orbitals (Q,E):
 ---------------
 A :59...69          ( 2.00    -0.3095)  ( 2.00    -0.2943)  ( 2.00    -0.2896)  ( 2.00    -0.2864)
                     ( 2.00    -0.2830)  ( 2.00    -0.2736)  ( 2.00    -0.2695)  ( 2.00    -0.2552)
                     ( 2.00    -0.2309)  ( 2.00    -0.2079)  ( 0.00    -0.0080)

 CYCLE   15
  SDIIS (wt  1.000):  0.0000 -0.0000 -0.0001  0.0001  0.0004  0.0093  0.0520  0.1097  0.2750  0.5536
  DIIS coefficients:  0.0000 -0.0000 -0.0001  0.0001  0.0004  0.0093  0.0520  0.1097  0.2750  0.5536
 SCF Error: norm([F,P])=      0.000002765366, max([F,P])=      0.000000533699
 orbitals (Q,E):
 ---------------
 A :59...69          ( 2.00    -0.3095)  ( 2.00    -0.2943)  ( 2.00    -0.2896)  ( 2.00    -0.2864)
                     ( 2.00    -0.2830)  ( 2.00    -0.2736)  ( 2.00    -0.2695)  ( 2.00    -0.2552)
                     ( 2.00    -0.2309)  ( 2.00    -0.2079)  ( 0.00    -0.0080)

 SCF CONVERGED
 cosmo_calcen: 0.5 (esolb+esolc) (Hartrees) =   -0.006272

 Solvation energy (screening term,uncorrected) =     -3.935860 kcal/mol

 Solvation energy (dispersion and cavitation terms) =      1.469875 kcal/mol
 Solvation Energy Contributions (Hartrees)
          esola   esolb+esolc
     0.00627219   -0.01254438
 esol last cycle   -0.00627219

 CYCLE   16
1
 ***************************************************************************************************



                                                *******************
                                                *  R E S U L T S  *
                                                *******************
  
 *** Using FIT density in Focky
  SDIIS (wt  1.000): -0.0000 -0.0000 -0.0002 -0.0005  0.0005  0.0090  0.0250  0.0786  0.2923  0.5954
  DIIS coefficients: -0.0000 -0.0000 -0.0002 -0.0005  0.0005  0.0090  0.0250  0.0786  0.2923  0.5954
 SCF Error: norm([F,P])=      0.000000976542, max([F,P])=      0.000000173462

 Orbital Energies, per Irrep and Spin:
 ======================================
                        Occup              E (au)              E (eV)       Diff (eV) with prev. cycle
                        -----      --------------------        ------       --------------------------
 A
              59        2.000     -0.30954148156141E+00        -8.423               1.21E-06
              60        2.000     -0.29434852897292E+00        -8.010               7.74E-07
              61        2.000     -0.28959697277670E+00        -7.880               7.82E-07
              62        2.000     -0.28641780662799E+00        -7.794               1.10E-06
              63        2.000     -0.28302435876875E+00        -7.701               1.05E-06
              64        2.000     -0.27359510663184E+00        -7.445               8.44E-07
              65        2.000     -0.26954682362507E+00        -7.335               1.59E-06
              66        2.000     -0.25516899323874E+00        -6.944               8.22E-07
              67        2.000     -0.23092402866305E+00        -6.284               3.10E-07
              68        2.000     -0.20785831506220E+00        -5.656              -3.55E-07
              69        0.000     -0.79744369353564E-02        -0.217
              70        0.000     -0.49198305166377E-02        -0.134
              71        0.000      0.95925966434498E-03         0.026
              72        0.000      0.15080079968396E-01         0.410
              73        0.000      0.17377953097684E-01         0.473
              74        0.000      0.20845955511999E-01         0.567
              75        0.000      0.26467541417430E-01         0.720
              76        0.000      0.29694854423128E-01         0.808
              77        0.000      0.31643253395028E-01         0.861
              78        0.000      0.41158911705322E-01         1.120
  
 HOMO :       68 A                -0.20785831506220E+00
 LUMO :       69 A                -0.79744369353564E-02
  
 cosmo_calcen: 0.5 (esolb+esolc) (Hartrees) =   -0.006272

 Solvation energy (screening term,uncorrected) =     -3.935861 kcal/mol

 Solvation energy (dispersion and cavitation terms) =      1.469875 kcal/mol
 Solvation Energy Contributions (Hartrees)
          esola   esolb+esolc
     0.00627219   -0.01254439
 esol last cycle   -0.00627219


 All Electron Calculation, thus no Orbital Energies of the Core Orbitals are calculated


 Fit test: (difference of exact and fit density, squared integrated, result summed over spins)
         Sum-of-Fragments:                             0.00000000001281
         Orthogonalized Fragments:                     0.00004846688650
         SCF:                                          0.00011679516193



 ==========================
 Electron Density at Nuclei
 ==========================
  
 The electron density is calculated at points on a small sphere around the center of a nucleus.
 The printed electron density is the average electron density on these points.
 The radius of the sphere is the printed approximate finite nuclear radius.

         Atom        Nuclear Radius (Angstrom)             Electron Density (a.u.)
         ----        -------------------------             -----------------------
     1)   O                 0.0000345546                              310.83660
     2)   P                 0.0000412627                             2180.65984
     3)   O                 0.0000345546                              310.90507
     4)   O                 0.0000345546                              310.86332
     5)   C                 0.0000320678                              126.30239
     6)   C                 0.0000320678                              126.30595
     7)   C                 0.0000320678                              126.27199
     8)   C                 0.0000320678                              126.26756
     9)   C                 0.0000320678                              126.27623
    10)   C                 0.0000320678                              126.26671
    11)   H                 0.0000181514                                0.48351
    12)   H                 0.0000181514                                0.48456
    13)   H                 0.0000181514                                0.48343
    14)   H                 0.0000181514                                0.48443
    15)   H                 0.0000181514                                0.48246
    16)   H                 0.0000181514                                0.48317
    17)   H                 0.0000181514                                0.48357
    18)   H                 0.0000181514                                0.48378
    19)   H                 0.0000181514                                0.48260
    20)   H                 0.0000181514                                0.48245
    21)   H                 0.0000181514                                0.48265
    22)   H                 0.0000181514                                0.48455
    23)   C                 0.0000320678                              126.30238
    24)   C                 0.0000320678                              126.21988
    25)   H                 0.0000181514                                0.48313
    26)   H                 0.0000181514                                0.48439
    27)   C                 0.0000320678                              126.26075
    28)   C                 0.0000320678                              126.26854
    29)   H                 0.0000181514                                0.48361
    30)   C                 0.0000320678                              126.26303
    31)   H                 0.0000181514                                0.49153
    32)   C                 0.0000320678                              126.26788
    33)   H                 0.0000181514                                0.48435
    34)   H                 0.0000181514                                0.48553
    35)   H                 0.0000181514                                0.48385
    36)   H                 0.0000181514                                0.48591
    37)   H                 0.0000181514                                0.48525
    38)   H                 0.0000181514                                0.48379
    39)   H                 0.0000181514                                0.48408
    40)   H                 0.0000181514                                0.48359
    41)   H                 0.0000181514                                0.48617



 =======================================
 M U L L I K E N   P O P U L A T I O N S
 =======================================
  
 The survey below gives for each atom:
 a) the total charge (Z minus electrons)
 b) the net spin polarization (nr of electrons spin-A minus spin-B)
 c) for each spin the atomic electron valence density (integrated) per L-value.

 Atom              Charge    Spin density          S         P         D         F
 ----              ------    ------------       ------    ------    ------    ------
 1 O              -0.5085                       3.8259    4.6150    0.0621    0.0054
 2 P               0.6975                       5.5267    8.2144    0.4566    0.1048
 3 O              -0.5376                       3.8280    4.6439    0.0602    0.0054
 4 O              -0.5427                       3.8250    4.6529    0.0594    0.0054
 5 C               0.2512                       3.1525    2.4680    0.1215    0.0068
 6 C               0.2870                       3.1427    2.4411    0.1224    0.0068
 7 C               0.4853                       2.9710    2.5002    0.0417    0.0017
 8 C               0.4263                       2.9792    2.5507    0.0420    0.0018
 9 C               0.4586                       2.9677    2.5299    0.0420    0.0017
 10 C              0.4274                       2.9796    2.5493    0.0420    0.0018
 11 H             -0.1385                       1.0535    0.0805    0.0044    0.0000
 12 H             -0.1354                       1.0458    0.0851    0.0045    0.0000
 13 H             -0.1762                       1.0909    0.0809    0.0043    0.0000
 14 H             -0.1382                       1.0528    0.0811    0.0044    0.0000
 15 H             -0.1239                       1.0395    0.0802    0.0043    0.0000
 16 H             -0.1615                       1.0780    0.0793    0.0043    0.0000
 17 H             -0.1316                       1.0462    0.0810    0.0044    0.0000
 18 H             -0.1553                       1.0697    0.0812    0.0044    0.0000
 19 H             -0.1662                       1.0826    0.0793    0.0043    0.0000
 20 H             -0.1240                       1.0396    0.0801    0.0043    0.0000
 21 H             -0.1576                       1.0742    0.0792    0.0042    0.0000
 22 H             -0.1408                       1.0554    0.0810    0.0044    0.0000
 23 C              0.5036                       3.0669    2.3186    0.1052    0.0057
 24 C             -0.0058                       3.2307    2.6742    0.0964    0.0045
 25 H             -0.1557                       1.0731    0.0784    0.0043    0.0000
 26 H             -0.1289                       1.0433    0.0813    0.0043    0.0000
 27 C              0.4821                       2.9659    2.5067    0.0435    0.0018
 28 C              0.4666                       2.9694    2.5186    0.0437    0.0018
 29 H             -0.1394                       1.0536    0.0815    0.0043    0.0000
 30 C              0.3897                       2.9850    2.5814    0.0421    0.0017
 31 H             -0.1666                       1.0852    0.0769    0.0045    0.0000
 32 C              0.4674                       2.9652    2.5218    0.0438    0.0018
 33 H             -0.1748                       1.0901    0.0804    0.0044    0.0000
 34 H             -0.1268                       1.0393    0.0830    0.0044    0.0000
 35 H             -0.1641                       1.0791    0.0806    0.0043    0.0000
 36 H             -0.1687                       1.0816    0.0828    0.0044    0.0000
 37 H             -0.1387                       1.0529    0.0815    0.0043    0.0000
 38 H             -0.1670                       1.0818    0.0808    0.0044    0.0000
 39 H             -0.1540                       1.0695    0.0801    0.0044    0.0000
 40 H             -0.1593                       1.0758    0.0792    0.0043    0.0000
 41 H             -0.1549                       1.0684    0.0822    0.0044    0.0000

 Populations of individual BAS functions
 ----------------------------------------
 1 O            0.0000 -0.0000  0.0003  0.0005  0.4539  1.6749 -0.1649  1.0042  0.8571  0.0031
                0.0037  0.0035  0.1951  0.2597  0.2522  0.9118  1.0377  1.0075  0.1575  0.4160
                0.3673  0.0318  0.0133  0.0187 -0.0075  0.0073 -0.0015  0.0110  0.0086  0.0078
               -0.0066  0.0007 -0.0023 -0.0080 -0.0039  0.0007 -0.0026
 3 O            0.0000 -0.0000  0.0003  0.0005  0.4541  1.6752 -0.1656  1.0099  0.8537  0.0032
                0.0034  0.0033  0.2233  0.2464  0.2418  0.9434  0.9865  0.9785  0.2919  0.3770
                0.3454  0.0135  0.0161  0.0100  0.0016  0.0121  0.0069  0.0022  0.0016  0.0019
                0.0011  0.0009 -0.0017  0.0006  0.0017 -0.0010 -0.0020
 4 O            0.0000 -0.0000  0.0003  0.0004  0.4554  1.6760 -0.1678  1.0095  0.8512  0.0030
                0.0033  0.0035  0.2026  0.2471  0.2631  0.9080  0.9839  1.0171  0.1962  0.3778
                0.4472  0.0266  0.0184  0.0119  0.0007  0.0099 -0.0081  0.0084  0.0060  0.0081
               -0.0003  0.0009 -0.0064  0.0000  0.0024 -0.0047 -0.0091
 2 P           -0.0000  0.0000 -0.0001  0.0040  0.5050  1.4437  1.4817  0.5480  0.0071  0.0070
                0.0071  0.7481  0.7487  0.7535  1.2670  1.2629  1.2587  0.3168  1.2538 -0.0261
                0.2646  0.2555  0.3554  0.4086  0.3372  0.6164 -0.0500 -0.0374  0.0039  0.0545
                0.1322  0.0948  0.0525  0.0788  0.0439  0.0035  0.0241  0.0186  0.0221  0.0212
                0.0079 -0.0033  0.0130  0.0067 -0.0090
 5 C            0.0000 -0.0000  0.0005 -0.0081  0.4674  1.5927  0.3167  0.9133 -0.1301  0.0022
                0.0026  0.0025 -0.1471 -0.1664 -0.1931  0.7972  0.9177  0.8989  0.1105  0.1224
                0.1208  0.0145  0.0252  0.0259  0.0130  0.0258  0.0171 -0.0006  0.0010  0.0011
                0.0014  0.0011  0.0014 -0.0008  0.0006  0.0014  0.0001
 6 C            0.0000 -0.0000  0.0005 -0.0083  0.4685  1.5919  0.3025  0.9183 -0.1308  0.0022
                0.0026  0.0025 -0.1603 -0.1741 -0.2050  0.7869  0.9244  0.9088  0.1077  0.1231
                0.1222  0.0169  0.0258  0.0286  0.0133  0.0248  0.0130  0.0005  0.0015  0.0018
                0.0007  0.0010  0.0011 -0.0006  0.0011  0.0009 -0.0013
 7 C            0.0000 -0.0000  0.0006 -0.0105  0.4813  1.5776  0.0908  0.9642 -0.1330  0.0026
                0.0026  0.0024 -0.3230 -0.2812 -0.2416  1.0107  0.9986  0.9253  0.1350  0.1376
                0.1313  0.0017  0.0114  0.0104  0.0031  0.0087  0.0065 -0.0015  0.0006 -0.0000
                0.0006  0.0004  0.0014 -0.0010 -0.0003  0.0008  0.0007
 8 C            0.0000 -0.0000  0.0006 -0.0105  0.4813  1.5776  0.1000  0.9630 -0.1328  0.0024
                0.0024  0.0026 -0.2184 -0.2666 -0.2788  0.9427  0.9523  1.0039  0.1369  0.1327
                0.1387  0.0049  0.0109  0.0076  0.0039  0.0121  0.0025  0.0000  0.0008  0.0003
                0.0008  0.0004 -0.0005 -0.0003  0.0013  0.0001 -0.0012
 9 C            0.0000 -0.0000  0.0006 -0.0106  0.4821  1.5767  0.0857  0.9662 -0.1329  0.0024
                0.0025  0.0024 -0.2484 -0.2900 -0.2523  0.9613  0.9976  0.9477  0.1368  0.1372
                0.1325  0.0058  0.0067  0.0092  0.0034  0.0132  0.0036  0.0001  0.0000  0.0003
               -0.0002  0.0003  0.0006 -0.0010  0.0006  0.0014 -0.0004
 10 C           0.0000 -0.0000  0.0006 -0.0104  0.4812  1.5777  0.1001  0.9633 -0.1329  0.0025
                0.0024  0.0025 -0.2419 -0.2628 -0.2632  0.9704  0.9490  0.9827  0.1381  0.1323
                0.1374  0.0030  0.0097  0.0101  0.0043  0.0128  0.0019 -0.0012  0.0000  0.0007
                0.0008  0.0004  0.0007 -0.0001  0.0013  0.0006 -0.0015
 23 C           0.0000 -0.0000  0.0005 -0.0085  0.4704  1.5902  0.2056  0.9422 -0.1335  0.0019
                0.0027  0.0026 -0.1926 -0.2965 -0.2533  0.7201  0.9915  0.9752  0.0998  0.1321
                0.1352  0.0177  0.0243  0.0197  0.0154  0.0178  0.0104  0.0029  0.0007  0.0014
               -0.0005  0.0004 -0.0007  0.0013  0.0013 -0.0002 -0.0009
 24 C           0.0000 -0.0000  0.0005 -0.0085  0.4708  1.5859  0.4330  0.8700 -0.1209  0.0026
                0.0026  0.0026 -0.1497 -0.1221 -0.1463  0.9165  0.9035  0.9015  0.1198  0.1212
                0.1221  0.0124  0.0182  0.0195  0.0131  0.0195  0.0137  0.0005  0.0005  0.0002
                0.0001  0.0004  0.0007  0.0004  0.0006  0.0004  0.0007
 27 C           0.0000 -0.0000  0.0006 -0.0101  0.4797  1.5787  0.0900  0.9588 -0.1318  0.0026
                0.0025  0.0024 -0.3052 -0.2750 -0.2254  1.0097  0.9788  0.9113  0.1367  0.1368
                0.1317  0.0053  0.0053  0.0096  0.0064  0.0088  0.0080  0.0000 -0.0005 -0.0007
               -0.0002  0.0002  0.0008  0.0001 -0.0002  0.0008  0.0015
 28 C           0.0000 -0.0000  0.0006 -0.0101  0.4797  1.5781  0.0962  0.9554 -0.1305  0.0025
                0.0023  0.0025 -0.2799 -0.2179 -0.2872  0.9971  0.9001  0.9939  0.1376  0.1313
                0.1363  0.0066  0.0081  0.0054  0.0080  0.0112  0.0044  0.0002 -0.0006 -0.0002
                0.0007  0.0002 -0.0004  0.0017  0.0012 -0.0005 -0.0004
 30 C           0.0000 -0.0000  0.0006 -0.0107  0.4828  1.5760  0.1052  0.9636 -0.1324  0.0025
                0.0023  0.0025 -0.2685 -0.1771 -0.2717  0.9924  0.8917  0.9964  0.1389  0.1341
                0.1381  0.0058  0.0057  0.0063  0.0089  0.0123  0.0031 -0.0001 -0.0010 -0.0000
                0.0007  0.0002 -0.0002  0.0020  0.0015 -0.0004 -0.0009
 32 C           0.0000 -0.0000  0.0006 -0.0103  0.4804  1.5778  0.0888  0.9591 -0.1313  0.0023
                0.0025  0.0025 -0.2165 -0.2743 -0.2808  0.9013  0.9911  0.9872  0.1317  0.1382
                0.1366  0.0082  0.0112  0.0082  0.0043  0.0056  0.0063  0.0018  0.0011  0.0007
               -0.0005  0.0002 -0.0007 -0.0004 -0.0004 -0.0002  0.0001
 11 H           0.0000 -0.0000  0.0006 -0.0276  0.4037  0.1976  0.4793  0.0297  0.0263  0.0246
                0.0029  0.0012  0.0006 -0.0020  0.0006  0.0011
 12 H           0.0000 -0.0000  0.0008 -0.0339  0.4181  0.1450  0.5158  0.0289  0.0306  0.0256
                0.0010  0.0006  0.0009  0.0032  0.0010 -0.0022
 13 H           0.0000 -0.0000  0.0006 -0.0264  0.4476  0.2014  0.4677  0.0263  0.0295  0.0251
               -0.0002  0.0009  0.0006  0.0025  0.0007 -0.0002
 14 H           0.0000 -0.0000  0.0007 -0.0302  0.4217  0.1630  0.4975  0.0237  0.0241  0.0333
               -0.0022  0.0006  0.0011 -0.0001  0.0010  0.0040
 15 H           0.0000 -0.0000  0.0008 -0.0338  0.4268  0.1274  0.5182  0.0275  0.0264  0.0263
                0.0038  0.0012  0.0009 -0.0011  0.0006 -0.0011
 16 H           0.0000 -0.0000  0.0006 -0.0274  0.4359  0.1928  0.4761  0.0255  0.0253  0.0285
               -0.0010  0.0009  0.0007  0.0018  0.0006  0.0012
 17 H           0.0000 -0.0000  0.0007 -0.0302  0.4076  0.1714  0.4967  0.0274  0.0262  0.0273
                0.0048  0.0012  0.0012 -0.0021  0.0007 -0.0013
 18 H           0.0000 -0.0000  0.0007 -0.0313  0.4615  0.1364  0.5023  0.0265  0.0305  0.0243
               -0.0005  0.0008  0.0006  0.0031  0.0009 -0.0005
 19 H           0.0000 -0.0000  0.0005 -0.0256  0.4297  0.2126  0.4653  0.0244  0.0295  0.0255
               -0.0026  0.0009  0.0009  0.0025  0.0006  0.0020
 20 H           0.0000 -0.0000  0.0008 -0.0337  0.4260  0.1291  0.5173  0.0274  0.0262  0.0265
                0.0034  0.0011  0.0008 -0.0013  0.0007 -0.0004
 21 H           0.0000 -0.0000  0.0006 -0.0268  0.4206  0.2071  0.4726  0.0252  0.0252  0.0288
               -0.0019  0.0008  0.0009  0.0018  0.0007  0.0019
 22 H           0.0000 -0.0000  0.0007 -0.0312  0.4550  0.1234  0.5075  0.0286  0.0239  0.0284
                0.0010  0.0008  0.0007 -0.0002  0.0008  0.0013
 25 H           0.0000 -0.0000  0.0006 -0.0270  0.4123  0.2152  0.4720  0.0278  0.0228  0.0277
                0.0010  0.0006  0.0005 -0.0003  0.0007  0.0019
 26 H           0.0000 -0.0000  0.0008 -0.0341  0.4285  0.1276  0.5206  0.0251  0.0245  0.0318
               -0.0028  0.0004  0.0013  0.0004  0.0007  0.0042
 29 H           0.0000 -0.0000  0.0008 -0.0324  0.4398  0.1353  0.5100  0.0319  0.0236  0.0260
                0.0053  0.0015  0.0014 -0.0023  0.0003 -0.0018
 31 H           0.0000 -0.0000  0.0004 -0.0238  0.4504  0.2006  0.4576  0.0214  0.0269  0.0286
               -0.0021  0.0004  0.0010 -0.0005  0.0009  0.0047
 33 H           0.0000 -0.0000  0.0006 -0.0266  0.4404  0.2065  0.4692  0.0282  0.0240  0.0281
                0.0008  0.0006  0.0006  0.0006  0.0006  0.0012
 34 H           0.0000 -0.0000  0.0009 -0.0361  0.4739  0.0624  0.5383  0.0332  0.0240  0.0259
                0.0051  0.0015  0.0013 -0.0025  0.0003 -0.0014
 35 H           0.0000 -0.0000  0.0007 -0.0289  0.4409  0.1818  0.4847  0.0258  0.0240  0.0309
               -0.0028  0.0003  0.0015 -0.0007  0.0010  0.0051
 36 H           0.0000 -0.0000  0.0007 -0.0310  0.4732  0.1388  0.4999  0.0270  0.0307  0.0251
               -0.0014  0.0012  0.0003  0.0052  0.0015 -0.0025
 37 H           0.0000 -0.0000  0.0009 -0.0360  0.5054  0.0436  0.5391  0.0324  0.0248  0.0243
                0.0053  0.0016  0.0013 -0.0026  0.0002 -0.0016
 38 H           0.0000 -0.0000  0.0006 -0.0273  0.4351  0.1980  0.4753  0.0275  0.0282  0.0252
                0.0001  0.0006  0.0006  0.0007  0.0006  0.0018
 39 H           0.0000 -0.0000  0.0006 -0.0279  0.4094  0.2101  0.4774  0.0237  0.0284  0.0280
                0.0006  0.0006  0.0006  0.0011  0.0006  0.0009
 40 H           0.0000 -0.0000  0.0007 -0.0295  0.4486  0.1660  0.4900  0.0237  0.0257  0.0298
               -0.0023  0.0003  0.0014 -0.0018  0.0013  0.0054
 41 H           0.0000 -0.0000  0.0007 -0.0309  0.4482  0.1501  0.5003  0.0238  0.0324  0.0260
               -0.0008  0.0011  0.0003  0.0051  0.0015 -0.0028

 Gross Charges per Atom (Z minus electrons)
 ==========================================
            -0.5085    0.6975   -0.5376   -0.5427    0.2512    0.2870    0.4853    0.4263    0.4586    0.4274
            -0.1385   -0.1354   -0.1762   -0.1382   -0.1239   -0.1615   -0.1316   -0.1553   -0.1662   -0.1240
            -0.1576   -0.1408    0.5036   -0.0058   -0.1557   -0.1289    0.4821    0.4666   -0.1394    0.3897
            -0.1666    0.4674   -0.1748   -0.1268   -0.1641   -0.1687   -0.1387   -0.1670   -0.1540   -0.1593
            -0.1549
 Net Total: -0.00000000


 Atom-Atom Population Matrix (off-diagonal elements not doubled)
 ===============================================================

     1 :     8.1724
     2 :     0.3017   13.4614
     3 :    -0.0305    0.3138    8.2155
     4 :    -0.0334    0.3151   -0.0469    8.2090
     5 :    -0.0079   -0.0073    0.2044   -0.0198    4.6340
     6 :    -0.0014   -0.0136   -0.0246    0.2176    0.3743    4.5945
     7 :     0.0020    0.0010   -0.0276   -0.0135    0.3600   -0.0228    4.1764
     8 :    -0.0006   -0.0023   -0.0313    0.0034    0.3653   -0.0200   -0.0296    4.2029
     9 :    -0.0006   -0.0051   -0.0121   -0.0310   -0.0229    0.3622   -0.0000    0.0075    4.1908
    10 :     0.0004    0.0017    0.0038   -0.0303   -0.0216    0.3616    0.0079   -0.0058   -0.0246    4.2009
    11 :     0.0005   -0.0066    0.0125    0.0013   -0.0158   -0.0130    0.3518   -0.0142    0.0008    0.0004
             0.9913
    12 :     0.0002    0.0009   -0.0081    0.0057    0.0117   -0.0196    0.3645    0.0051   -0.0010   -0.0069
            -0.0723    0.9644
    13 :     0.0016    0.0001   -0.0143   -0.0015   -0.0170    0.0058    0.3717   -0.0228   -0.0016   -0.0032
            -0.0760   -0.0782    1.0303
    14 :     0.0000   -0.0002   -0.0156    0.0013   -0.0070   -0.0260    0.0010    0.3679    0.0083   -0.0002
             0.0009   -0.0081    0.0031    0.9807
    15 :     0.0002   -0.0006    0.0110    0.0002   -0.0160   -0.0090   -0.0097    0.3824   -0.0020   -0.0006
            -0.0079    0.0042   -0.0013   -0.0847    0.9540
    16 :    -0.0003   -0.0031   -0.0150   -0.0017   -0.0113    0.0079   -0.0191    0.3729   -0.0045    0.0005
            -0.0048    0.0024   -0.0169   -0.0636   -0.0804    0.9987
    17 :     0.0002   -0.0049    0.0009    0.0132   -0.0137   -0.0133    0.0008    0.0006    0.3651   -0.0125
             0.0016   -0.0003   -0.0007   -0.0005   -0.0073   -0.0005    0.9577
    18 :    -0.0006   -0.0074    0.0071   -0.0116   -0.0199   -0.0003    0.0002   -0.0065    0.3613    0.0047
            -0.0002    0.0009   -0.0004   -0.0213    0.0037    0.0009   -0.0698    0.9896
    19 :    -0.0003   -0.0002   -0.0012   -0.0149    0.0048   -0.0157   -0.0017   -0.0032    0.3761   -0.0200
            -0.0008   -0.0005    0.0006    0.0000    0.0012   -0.0017   -0.0739   -0.0719    1.0042
    20 :     0.0000   -0.0014    0.0003    0.0112   -0.0077   -0.0138   -0.0039    0.0009   -0.0086    0.3788
            -0.0055    0.0051    0.0008    0.0029   -0.0158    0.0002   -0.0102    0.0031   -0.0012    0.9558
    21 :     0.0002   -0.0012   -0.0016   -0.0136    0.0076   -0.0102   -0.0049    0.0003   -0.0190    0.3719
            -0.0005    0.0016   -0.0018   -0.0009    0.0001    0.0008   -0.0011    0.0034   -0.0176   -0.0804
             0.9902
    22 :    -0.0002   -0.0027    0.0010   -0.0142   -0.0279   -0.0094    0.0111    0.0006    0.0029    0.3662
            -0.0024   -0.0311    0.0013   -0.0002    0.0027   -0.0003    0.0005   -0.0087    0.0039   -0.0863
            -0.0655    0.9979
    23 :     0.2494   -0.0408   -0.0034   -0.0034    0.0016    0.0010    0.0006   -0.0000   -0.0002   -0.0000
            -0.0002   -0.0000    0.0010    0.0002    0.0001   -0.0002    0.0000   -0.0004   -0.0000   -0.0000
            -0.0000    0.0004    4.3706
    24 :    -0.0264   -0.0078    0.0001    0.0001   -0.0008    0.0001    0.0003   -0.0000    0.0001   -0.0001
            -0.0002    0.0007    0.0004   -0.0000    0.0000    0.0000    0.0000   -0.0000    0.0000    0.0000
            -0.0000    0.0001    0.3594    4.7977
    25 :    -0.0121   -0.0060   -0.0005    0.0004   -0.0003    0.0000    0.0000   -0.0001    0.0000   -0.0002
            -0.0001   -0.0002    0.0001   -0.0000    0.0000   -0.0000    0.0000   -0.0002    0.0001   -0.0000
            -0.0001    0.0002   -0.0064    0.0062    0.9861
    26 :    -0.0164   -0.0006   -0.0003    0.0003    0.0000    0.0004    0.0004    0.0000    0.0000    0.0000
             0.0002   -0.0022    0.0002    0.0000    0.0000   -0.0000   -0.0000    0.0000   -0.0000   -0.0000
             0.0001    0.0001   -0.0187   -0.0209   -0.0730    0.9577
    27 :    -0.0097    0.0004    0.0007   -0.0003   -0.0003   -0.0002    0.0011    0.0000   -0.0000    0.0001
             0.0007   -0.0001   -0.0008    0.0000    0.0000   -0.0001    0.0000    0.0000   -0.0000    0.0000
             0.0000   -0.0003   -0.0209    0.3879    0.0013   -0.0016    4.1620
    28 :    -0.0007   -0.0002    0.0026   -0.0001   -0.0008    0.0001    0.0004   -0.0000   -0.0001    0.0000
             0.0004    0.0001    0.0013   -0.0000   -0.0000   -0.0001   -0.0000   -0.0001    0.0000   -0.0000
             0.0000   -0.0001   -0.0070    0.3703   -0.0023    0.0003   -0.0218    4.1819
    29 :     0.0142    0.0025    0.0002   -0.0000    0.0001   -0.0001   -0.0000    0.0000    0.0000    0.0000
             0.0000    0.0000   -0.0000    0.0000   -0.0000    0.0000   -0.0000   -0.0000    0.0000    0.0000
             0.0000   -0.0000   -0.0116   -0.0037   -0.0697   -0.0965   -0.0032    0.0011    0.9803
    30 :    -0.0333    0.0022   -0.0006    0.0013    0.0000    0.0000   -0.0001   -0.0000    0.0000   -0.0000
             0.0000   -0.0003    0.0001    0.0000    0.0000   -0.0000   -0.0000   -0.0000    0.0000    0.0000
             0.0000   -0.0001    0.3493   -0.0253    0.3700    0.3989   -0.0037   -0.0004    0.3694    4.2400
    31 :    -0.0598    0.0105   -0.0015   -0.0015    0.0010    0.0004    0.0003    0.0000   -0.0003   -0.0001
             0.0001   -0.0005    0.0003    0.0001    0.0001   -0.0000   -0.0001   -0.0004    0.0000    0.0000
            -0.0000   -0.0000    0.3765   -0.0534   -0.0341    0.0166    0.0003   -0.0247   -0.0271   -0.0496
             1.0487
    32 :     0.0030    0.0010   -0.0003    0.0000    0.0000    0.0001   -0.0000    0.0000    0.0000   -0.0000
             0.0000   -0.0002   -0.0000    0.0000    0.0000   -0.0000   -0.0000    0.0000   -0.0000   -0.0000
            -0.0000    0.0000   -0.0136    0.3737   -0.0001   -0.0028   -0.0169   -0.0201   -0.0038    0.0015
            -0.0130    4.1789
    33 :     0.0016   -0.0023    0.0007    0.0000    0.0002   -0.0000    0.0002    0.0000   -0.0000    0.0000
             0.0001    0.0003    0.0006    0.0000    0.0000   -0.0000   -0.0000   -0.0000   -0.0000   -0.0000
             0.0000   -0.0000   -0.0059   -0.0127    0.0003   -0.0011   -0.0124    0.3601   -0.0013   -0.0041
             0.0039   -0.0141    1.0227
    34 :    -0.0018    0.0028   -0.0012    0.0000    0.0010   -0.0009   -0.0020    0.0003   -0.0001    0.0000
            -0.0015    0.0040   -0.0102    0.0001   -0.0002   -0.0003   -0.0001    0.0002   -0.0000    0.0000
             0.0000   -0.0002   -0.0107   -0.0320   -0.0010   -0.0007   -0.0139    0.3798    0.0014    0.0012
            -0.0097   -0.0004   -0.0761    0.9970
    35 :    -0.0007   -0.0014    0.0007   -0.0002   -0.0001    0.0001    0.0002   -0.0000   -0.0000    0.0000
             0.0000   -0.0005    0.0007    0.0000   -0.0000    0.0001   -0.0000   -0.0001   -0.0000    0.0000
             0.0000   -0.0000   -0.0142   -0.0104   -0.0006    0.0015    0.0004    0.3664    0.0001    0.0023
            -0.0047   -0.0118   -0.0704   -0.0871    1.0010
    36 :    -0.0005   -0.0012    0.0001   -0.0002   -0.0000   -0.0001   -0.0001   -0.0000   -0.0000    0.0000
            -0.0000    0.0030   -0.0002   -0.0000    0.0000   -0.0000    0.0000   -0.0000   -0.0000    0.0000
             0.0000   -0.0002   -0.0077   -0.0123   -0.0030   -0.0195    0.3622    0.0019    0.0108   -0.0049
             0.0026   -0.0162    0.0043    0.0030   -0.0103    1.0343
    37 :    -0.0003    0.0013   -0.0012    0.0004    0.0008    0.0007   -0.0028   -0.0002    0.0001   -0.0003
            -0.0021   -0.0088    0.0025   -0.0001   -0.0002    0.0010    0.0000   -0.0001    0.0000   -0.0001
            -0.0001    0.0017   -0.0235   -0.0234    0.0010    0.0010    0.3693   -0.0163   -0.0020   -0.0033
             0.0005    0.0013   -0.0054   -0.0059    0.0031   -0.1017    1.0415
    38 :     0.0002    0.0004    0.0001   -0.0000   -0.0002   -0.0000    0.0007    0.0000    0.0000    0.0000
             0.0002   -0.0004    0.0004   -0.0000    0.0000   -0.0001    0.0000    0.0000    0.0000    0.0000
            -0.0000   -0.0000    0.0021   -0.0145    0.0006   -0.0024    0.3656   -0.0108    0.0000    0.0023
            -0.0082   -0.0113   -0.0071   -0.0042    0.0040   -0.0660   -0.0853    1.0042
    39 :    -0.0022   -0.0009   -0.0000   -0.0000    0.0000   -0.0000   -0.0001   -0.0000   -0.0000    0.0000
            -0.0000   -0.0002    0.0001    0.0000   -0.0000   -0.0000    0.0000   -0.0000   -0.0000   -0.0000
            -0.0000    0.0000   -0.0003   -0.0164   -0.0002   -0.0014   -0.0111   -0.0146   -0.0010    0.0004
             0.0028    0.3671   -0.0096    0.0047   -0.0040   -0.0034    0.0027   -0.0036    0.9849
    40 :     0.0005    0.0039   -0.0001    0.0001   -0.0000    0.0001    0.0001    0.0000    0.0000    0.0000
             0.0000    0.0002   -0.0000    0.0000    0.0000   -0.0000    0.0000    0.0000    0.0000    0.0000
             0.0000    0.0000   -0.0176   -0.0127    0.0008   -0.0003    0.0017   -0.0140    0.0009   -0.0043
            -0.0083    0.3648   -0.0028    0.0021   -0.0025    0.0050   -0.0109    0.0026   -0.0747    1.0138
    41 :    -0.0002   -0.0006   -0.0000    0.0000   -0.0000    0.0000    0.0000    0.0000   -0.0000   -0.0000
             0.0000    0.0000    0.0001   -0.0000    0.0000    0.0000   -0.0000   -0.0000   -0.0000   -0.0000
            -0.0000   -0.0000   -0.0090   -0.0184   -0.0015    0.0096   -0.0187    0.0011   -0.0216    0.0012
            -0.0012    0.3659    0.0051   -0.0110    0.0023   -0.0111    0.0037   -0.0024   -0.0649   -0.0892
             1.0155



 =================================================
 H I R S H F E L D   C H A R G E   A N A L Y S I S
 =================================================
  
 For each fragment: the (numerical) integral of rho(scf) * rho(fragment)/rho(sum-of-fragments)
 (nuclear charges are included, electrons are counted negative)

 The fragments and their ordering are defined in the early G E O M E T R Y output section.
 If you use single-atom fragments, this usually implies that all atoms of the same
 chemical type are grouped together. This may not be the order in which you listed them
 in the input file!

    1  O                        -0.1438
    2  O                        -0.1779
    3  O                        -0.1855
    4  P                         0.2520
    5  C                         0.0748
    6  C                         0.0746
    7  C                        -0.1348
    8  C                        -0.1278
    9  C                        -0.1346
   10  C                        -0.1274
   11  C                         0.0385
   12  C                         0.0155
   13  C                        -0.1286
   14  C                        -0.1319
   15  C                        -0.1321
   16  C                        -0.1224
[...]
    2   ubuntu-kch                                0          2         -1
    3   ubuntu-kch                                0          3         -1
 ==============================================================================


May use up to 7570MB of RAM as shared memory on node 0
 
NMRCOUPLING
  ATOMPERT 2
  ATOMRESP 23 31
  fc
ADFGUI
END

 *******************************************************************************
 *                                                                             *
 *  --------------------------------                                           *
 *   Amsterdam Modeling Suite (AMS)              2021.105                      *
 *  --------------------------------                                           *
 *                                               r97261 2021-09-16             *
 *                                                                             *
 *                                                                             *
 *                              =================                              *
 *                              |               |                              *
 *                              |     C P L     |                              *
 *                              |               |                              *
 *                              =================                              *
 *                                                                             *
 *                                                                             *
 *   Online information and documentation:  https://www.scm.com/support/       *
 *   E-mail:  support@scm.com   info@scm.com                                   *
 *                                                                             *
 *   Scientific publications using AMS results must be properly referenced     *
 *   See the User Manuals (or the web site) for recommended citations          *
 *   The terms and conditions of the End User License Agreement apply to       *
 *   the use of AMS, https://www.scm.com/license-terms/                        *
 *                                                                             *
 **********************  x86_64_linux_intel / intelmpi  ************************
 
 Licensed to: Dr. Miroslav Ilias / Matej Bel University, Department Chemistry, Fac. Natural Sciences / Banska Bystrica / SLOVAKIA
 SCM User ID: u17848
  
 CPL 2021.105  RunTime: Nov25-2021 19:50:27  ShM Nodes: 1  Procs: 4

 Temporary files are created in /tmp/kid_0.1779674471 (0xEF53)


 Communication costs MPI_COMM_WORLD:      0.276 usec per message,   0.0033 usec per 8-byte item
 Communication costs for intra-node:      0.267 usec per message,   0.0034 usec per 8-byte item

 hello from rdinp, dbg=            0
   
   
  ****************************************  
     *************************************  
     **                                 **  
     **     ######  ######   ##         **  
     **    #######  ##   ##  ##         **  
     **   ##        ######   ##         **  
     **   ##        ##       ##         **  
     **    #######  ##       #######    **  
     **     ######  ##       #######    **  
     **                                 **  
     *************************************  
  ****************************************  
   
  CPL was written by                  
   
  Jochen Autschbach               
  SUNY Buffalo                  
   
  Original development of CPL took     
  place in the research group of       
  Tom Ziegler                 
  University of Calgary          
  Alberta, Canada              
   
  Further developments done by 
  JA's research group at SUNY Buffalo 
   
  Please cite this work using       
  some or all of Refs. [1-4]        
   
  Refs. [1,2]: original implementation    
  Ref. [3]: NBO analysis, 
  Ref. [4]: hybrid functionals and rewrite
  Recommended references: [2,4]       
   
  Nonrelativistic code for the       
  DSO term and a few other things     
  based on the Dickson & Ziegler      
  program, Refs. [5,6]            
   
  References: 
  =========== 
   
  [1] J. Autschbach and T. Ziegler,      
      J. Chem. Phys. 113 (2000), 936     
   
  [2] J. Autschbach and T. Ziegler,      
      J. Chem. Phys. 113 (2000), 9410    
   
  [3] J. Autschbach,                     
      J. Chem. Phys. 128 (2008), 164112  
   
  [4] J. Autschbach,                     
      J. Chem. Phys. 129 (2008), 094105  
   
  [5] R. M. Dickson and T. Ziegler,      
      J. Phys. Chem. 100 (1996), 5286    
   
  [6] J. Khandogin and T. Ziegler,       
      Spectrochim. Acta A55 (1999), 607  
   
  ****************************************  
   



                                        ***********************************
                                        *   J O B  I N F O R M A T I O N  *
                                        ***********************************
  



 ===============================
 General information from TAPE21
 ===============================
  
  TITLE:      *** adf ***                                       
 JOB ID:       853191311
  NONLXC:     OPTX PBEc                                         
  SYMMETRY:   NOSYM                                             
   
  IOPREL:       0
  ------>     non-rel. (Re MOs)



 ==========================================
 Nuclear Coordinates and internal numbering
 ==========================================
  
  O  (  1):       3.3815     -0.4910      0.0409
  O  (  2):       1.5187      1.2981     -0.0361
  O  (  3):       1.0946     -0.9055     -0.8631
  P  (  4):       2.3064      0.2040     -0.9707
  C  (  5):       0.4067      0.7233      0.7051
  C  (  6):      -0.1143     -0.3803     -0.2586
  C  (  7):       0.9313      0.1731      2.0229
  C  (  8):      -0.5866      1.8382      0.9614
  C  (  9):      -0.9864      0.1696     -1.3778
  C  ( 10):      -0.8154     -1.5278      0.4399
  C  ( 11):       4.7690     -0.5328     -0.3563
  C  ( 12):       5.6150      0.2634      0.6573
  C  ( 13):       5.4820     -0.3106      2.0665
  C  ( 14):       5.1412      1.7170      0.6578
  C  ( 15):       5.1437     -1.9895     -0.5334
  C  ( 16):       7.0802      0.2289      0.2206
  H  ( 17):       0.1077     -0.1582      2.6578
  H  ( 18):       1.6184     -0.6581      1.8677
  H  ( 19):       1.4664      0.9674      2.5459
  H  ( 20):      -0.8548      2.3561      0.0417
  H  ( 21):      -1.4951      1.4380      1.4171
  H  ( 22):      -0.1539      2.5629      1.6531
  H  ( 23):      -1.9608      0.4854     -1.0019
  H  ( 24):      -0.5119      1.0183     -1.8738
  H  ( 25):      -1.1441     -0.6167     -2.1176
  H  ( 26):      -1.6920     -1.1630      0.9803
  H  ( 27):      -1.1542     -2.2552     -0.2995
  H  ( 28):      -0.1540     -2.0318      1.1429
  H  ( 29):       4.4954     -2.4437     -1.2847
  H  ( 30):       5.0210     -2.5437      0.3987
  H  ( 31):       6.1756     -2.0945     -0.8704
  H  ( 32):       4.8635     -0.0237     -1.3252
  H  ( 33):       5.7601      2.3144      1.3320
  H  ( 34):       4.1040      1.7986      0.9876
  H  ( 35):       5.2164      2.1553     -0.3422
  H  ( 36):       5.8705     -1.3298      2.1287
  H  ( 37):       4.4381     -0.3203      2.3864
  H  ( 38):       6.0483      0.3021      2.7727
  H  ( 39):       7.6718      0.8919      0.8568
  H  ( 40):       7.1955      0.5696     -0.8127
  H  ( 41):       7.5081     -0.7723      0.2996



 =======
 Numbers
 =======
  
  number of valence electrons:    136.00
 
  ---   AOs   ---          ---   MOs   ---
  ncor =      0            nocc =     68
  nval =   1000            nvir =    843
  nbas =   1000            nmo  =    911
  naos =   1000            nsot =    911



 ===================
 Fragments and Basis
 ===================
  
   
  --------------------------
  ATOM TYPE:  O                                                 
  --------------------------
  === BASIS
    1S  800.00     VALENCE
    1S  160.00     VALENCE
    1S   40.00     VALENCE
    1S   16.00     VALENCE
    1S    9.80     VALENCE
    1S    6.80     VALENCE
    2S    7.58     VALENCE
    2S    2.88     VALENCE
    2S    1.72     VALENCE
    2P    9.80     VALENCE
    2P    4.08     VALENCE
    2P    2.08     VALENCE
    2P    1.12     VALENCE
    3D    2.00     VALENCE
    4F    3.00     VALENCE
   
  --------------------------
  ATOM TYPE:  P                                                 
  --------------------------
  === BASIS
    1S 1500.00     VALENCE
    1S  300.00     VALENCE
    1S   75.00     VALENCE
    1S   30.00     VALENCE
    1S   18.00     VALENCE
    1S   13.35     VALENCE
    2S    5.60     VALENCE
    2S    4.05     VALENCE
    2P   18.00     VALENCE
    2P    7.45     VALENCE
    2P    4.10     VALENCE
    3S    2.70     VALENCE
    3S    1.85     VALENCE
    3S    1.30     VALENCE
    3P    2.30     VALENCE
    3P    1.35     VALENCE
    3P    0.85     VALENCE
    3D    1.90     VALENCE
    4F    2.00     VALENCE
   
  --------------------------
  ATOM TYPE:  C                                                 
  --------------------------
  === BASIS
    1S  600.00     VALENCE
    1S  120.00     VALENCE
    1S   30.00     VALENCE
    1S   12.00     VALENCE
    1S    7.68     VALENCE
    1S    5.00     VALENCE
    2S    1.28     VALENCE
    2S    2.10     VALENCE
    2S    4.60     VALENCE
    2P    7.68     VALENCE
    2P    0.82     VALENCE
    2P    1.48     VALENCE
    2P    2.94     VALENCE
    3D    2.20     VALENCE
    4F    3.30     VALENCE
   
  --------------------------
  ATOM TYPE:  H                                                 
  --------------------------
  === BASIS
    1S  100.00     VALENCE
    1S   25.00     VALENCE
    1S    7.50     VALENCE
    1S    3.00     VALENCE
    1S    0.69     VALENCE
    1S    0.92     VALENCE
    1S    1.58     VALENCE
    2P    1.25     VALENCE
    3D    2.50     VALENCE



 =================================
 TAPE10 info, TAPE21 compatibility
 =================================
  
  ---> TAPE10 will be created by CPL
 
  ---> TAPE21 present
 
  ---> Potential is already on TAPE10.
       It will not be re-calculated.



 ==========================================
 Settings for the NMR couplings computation
 ==========================================
  
  Compute...
  FC  Term    YES             (*     default *)
  SD  Term     NO             (*     default *)
  PSO Term     NO             (*     default *)
  DSO Term     NO             (*     default *)
 
  Max. no. of SCF iterations:                25
  Convergence criterion for SCF cycle:       0.000100000

  Nuclei numbering in the output refers to the
  INTERNAL atom ordering of ADF.
  This ordering is usually different from the order
  that has been specified in the ADF input that pro-
  duced the TAPE21 being used here.



 ===========================
 L I N E A R   S C A L I N G
 ===========================
  

 Overlap cut-off criterion AO matrix elements:     0.1000000000E-07





                                  ***********************************************
                                  *  NMR spin spin coupling tensor calculation  *
                                  ***********************************************
  

 Nuclear magnetogyric ratios / 1E7 radians/(s T):
 O  (  1):    -3.628
 O  (  2):    -3.628
 O  (  3):    -3.628
 P  (  4):    10.841
 C  (  5):     6.728
 C  (  6):     6.728
 C  (  7):     6.728
 C  (  8):     6.728
 C  (  9):     6.728
 C  ( 10):     6.728
 C  ( 11):     6.728
 C  ( 12):     6.728
 C  ( 13):     6.728
 C  ( 14):     6.728
 C  ( 15):     6.728
 C  ( 16):     6.728
 H  ( 17):    26.752
 H  ( 18):    26.752
 H  ( 19):    26.752
 H  ( 20):    26.752
 H  ( 21):    26.752
 H  ( 22):    26.752
 H  ( 23):    26.752
 H  ( 24):    26.752
 H  ( 25):    26.752
 H  ( 26):    26.752
 H  ( 27):    26.752
 H  ( 28):    26.752
 H  ( 29):    26.752
 H  ( 30):    26.752
 H  ( 31):    26.752
 H  ( 32):    26.752
 H  ( 33):    26.752
 H  ( 34):    26.752
 H  ( 35):    26.752
 H  ( 36):    26.752
 H  ( 37):    26.752
 H  ( 38):    26.752
 H  ( 39):    26.752
 H  ( 40):    26.752
 H  ( 41):    26.752

 Performing the following coupling computations:
 Nucleus   4 (P ) perturbing 
          11 (C ) responding
          32 (H ) responding



 =============================================
 Computation for perturbing ADF-GUI atom: P(2)
 =============================================
  
 
 *** running FC calculation
     computing
     ... matrix elements for perturbing nucleus   4
     ... matrix elements for responding nucleus  11
     ... matrix elements for responding nucleus  32
     ... ZSO / Fermi contact coupling constant(s) 



 ===================================
 CPKS routine for spin-spin coupling  ***  Version 05/08 (scalar)  ***
 ===================================
  
 Using new AO based algorithms for CPKS
    running CPKS for TRIPLET Operator
    using first order VWN potential for LDA perturbation
    Will use LDA kernel
 
 iter.  1 V(1) measure  0.5010781876265E+00
 iter.  2 V(1) measure  0.7764159747417E+00
        2        delta  0.2753377871152E+00
 iter.  3 V(1) measure  0.7779934029185E+00
        3        delta  0.1577428176791E-02
 iter.  4 V(1) measure  0.7780008543384E+00
        4        delta  0.7451419895443E-05
 *** convergence reached



                                                *******************
                                                *  R E S U L T S  *
                                                *******************
  



 ========================================
  Nucleus 4 (P) perturbing nucleus 11 (C)
 ========================================
  
 Internal CPL numbering of atoms:  P(4) perturbing  C(11)
 ADF-GUI atoms:  P(2) perturbing  C(23)
  
 ---------------------------------
   Cartesian Axis Representation  
 ---------------------------------

 ----- k (10^19 kg m-2 s-2 A-2) ----         ------------- j (hz) -------------

 fermi-contact contribution:             
  isotropic    k=      21.709                              j=      26.577
      21.709       0.000       0.000             26.577       0.000       0.000
       0.000      21.709       0.000              0.000      26.577       0.000
       0.000       0.000      21.709              0.000       0.000      26.577

 total calculated spin-spin coupling:    
  isotropic    k=      21.709                              j=      26.577
      21.709       0.000       0.000             26.577       0.000       0.000
       0.000      21.709       0.000              0.000      26.577       0.000
       0.000       0.000      21.709              0.000       0.000      26.577
 
 ---------------------------------
   Principal Axis Representation  
 ---------------------------------

 ----- k (10^19 kg m-2 s-2 A-2) ----         ------------- j (hz) -------------

 fermi-contact contribution:             
  isotropic    k=      21.709                              j=      26.577
      21.709       0.000       0.000             26.577       0.000       0.000
       0.000      21.709       0.000              0.000      26.577       0.000
       0.000       0.000      21.709              0.000       0.000      26.577

 total calculated spin-spin coupling:    
  isotropic    k=      21.709                              j=      26.577
      21.709       0.000       0.000             26.577       0.000       0.000
       0.000      21.709       0.000              0.000      26.577       0.000
       0.000       0.000      21.709              0.000       0.000      26.577
 
 Principal Axis System (u,v,w) expressed in Cartesians:
 (taken as eigenvectors of the symmetric part of the coupling tensor,
  sorted in ascending order of eigenvalues = principal values)
        u         v         w
        1.000     0.000     0.000
        0.000     1.000     0.000
        0.000     0.000     1.000



 ========================================
  Nucleus 4 (P) perturbing nucleus 32 (H)
 ========================================
  
 Internal CPL numbering of atoms:  P(4) perturbing  H(32)
 ADF-GUI atoms:  P(2) perturbing  H(31)
  
 ---------------------------------
   Cartesian Axis Representation  
 ---------------------------------

 ----- k (10^19 kg m-2 s-2 A-2) ----         ------------- j (hz) -------------

 fermi-contact contribution:             
  isotropic    k=       2.811                              j=      13.685
       2.811       0.000       0.000             13.685       0.000       0.000
       0.000       2.811       0.000              0.000      13.685       0.000
       0.000       0.000       2.811              0.000       0.000      13.685

 total calculated spin-spin coupling:    
  isotropic    k=       2.811                              j=      13.685
       2.811       0.000       0.000             13.685       0.000       0.000
       0.000       2.811       0.000              0.000      13.685       0.000
       0.000       0.000       2.811              0.000       0.000      13.685
 
 ---------------------------------
   Principal Axis Representation  
 ---------------------------------

 ----- k (10^19 kg m-2 s-2 A-2) ----         ------------- j (hz) -------------

 fermi-contact contribution:             
  isotropic    k=       2.811                              j=      13.685
       2.811       0.000       0.000             13.685       0.000       0.000
       0.000       2.811       0.000              0.000      13.685       0.000
       0.000       0.000       2.811              0.000       0.000      13.685

 total calculated spin-spin coupling:    
  isotropic    k=       2.811                              j=      13.685
       2.811       0.000       0.000             13.685       0.000       0.000
       0.000       2.811       0.000              0.000      13.685       0.000
       0.000       0.000       2.811              0.000       0.000      13.685
 
 Principal Axis System (u,v,w) expressed in Cartesians:
 (taken as eigenvectors of the symmetric part of the coupling tensor,
  sorted in ascending order of eigenvalues = principal values)
        u         v         w
        1.000     0.000     0.000
        0.000     1.000     0.000
        0.000     0.000     1.000
 *******************************************************************************

                             N M R   E X I T
 NORMAL TERMINATION



 =================
 Timing Statistics
 =================
  
 Total Used :                     CPU=      359.85      System=        1.97     Elapsed=      367.64

 Calls  Section                     ( Mean, Percentage )
 ---------------------------------------------------------------------------------------------------
     3  ><      ................      0.00    0.00             0.00    0.00             0.00    0.00
     1  GENPT   ................      2.22    0.62             0.13    6.68             2.38    0.65
     3  CALFC   ................     69.66   58.07             0.44   66.68            70.97   57.91
     1  FCPT1   ................    148.64   41.31             0.52   26.44           152.32   41.43
     1  FCCPL   ................      0.00    0.00             0.00    0.00             0.00    0.00
     1  JCOUPL  ................      0.00    0.00             0.00    0.00             0.00    0.00
     1  EXIT PROCEDURE .........      0.00    0.00             0.00    0.19             0.01    0.00


 Currently Open Files (EXIT00)
 ====================

 Unit    Access Format  Status   Type       Ident (file)
 -------------------------------------------------------
   3      SEQ    FORM   TRANSP  NORMAL      LOGFILE
                                          ( /home/milias/work/projects/open-collection/theoretical_chemistry/projects/nmr_diplomovky/derivaty_markerov/derivative_7_Ivan/ams/nonrel/nmr_opbe_tz2p-j_good_cosmo-chcl3/der7.nmr_opbe_tz2p-j_good_cosmo-chcl3.logfile )
