 argument  1 = /home/milias/Work/open-collection/theoretical_chemistry/projects/nmr_diplomovky/derivaty_markerov/derivative_1/nwchem/der1.nmr_b3lyp_ccpvdz_cosmo-chcl3.nw
 


============================== echo of input deck ==============================
echo

start molecule

memory total 40 gb

print low

title "der1"
charge 0

geometry units angstroms print xyz autosym
#  load format xyz VX.converged_geometry_blyp_tz2p-solvent-chcl3.xyz
#  load format xyz VX.geom.xyz
  load format xyz der1.pbe0_tz2p_good_cosmo-chcl3_optimized_geom.xyz
end

basis
  * library cc-pvdz
end

dft
  direct
  grid fine
  xc b3lyp
  mult 1
# Reduce output during geometry optimization
  #noprint "final vectors analysis"
end

property
  giao
  shielding
  spinspin
end

cosmo
  solvent chcl3
end

task dft energy
task dft property
================================================================================


                                         
                                         
 
 
             Northwest Computational Chemistry Package (NWChem) 7.0.1
             --------------------------------------------------------
 
 
                    Environmental Molecular Sciences Laboratory
                       Pacific Northwest National Laboratory
                                Richland, WA 99352
 
                              Copyright (c) 1994-2020
                       Pacific Northwest National Laboratory
                            Battelle Memorial Institute
 
             NWChem is an open-source computational chemistry package
                        distributed under the terms of the
                      Educational Community License (ECL) 2.0
             A copy of the license is included with this distribution
                              in the LICENSE.TXT file
 
                                  ACKNOWLEDGMENT
                                  --------------

            This software and its documentation were developed at the
            EMSL at Pacific Northwest National Laboratory, a multiprogram
            national laboratory, operated for the U.S. Department of Energy
            by Battelle under Contract Number DE-AC05-76RL01830. Support
            for this work was provided by the Department of Energy Office
            of Biological and Environmental Research, Office of Basic
            Energy Sciences, and the Office of Advanced Scientific Computing.


           Job information
           ---------------

    hostname        = comp18.grid.umb.sk
    program         = /home/milias/Work/qch/software/nwchem_suite/nwchem_master/bin/LINUX64/nwchem
    date            = Sun Sep  5 00:04:50 2021

    compiled        = Sun_Jan_31_23:21:07_2021
    source          = /home/milias/Work/qch/software/nwchem_suite/nwchem_master
    nwchem branch   = 7.0.0
    nwchem revision = nwchem_on_git-2308-gc943026
    ga revision     = 5.8.0
    use scalapack   = F
    input           = /home/milias/Work/open-collection/theoretical_chemistry/projects/nmr_diplomovky/derivaty_markerov/derivative_1/nwchem/der1.nmr_b3lyp_ccpvdz_cosmo-chcl3.nw
    prefix          = molecule.
    data base       = ./molecule.db
    status          = startup
    nproc           =       12
    time left       =     -1s



           Memory information
           ------------------

    heap     = 1342177280 doubles =  10240.0 Mbytes
    stack    = 1342177277 doubles =  10240.0 Mbytes
    global   = 2684354560 doubles =  20480.0 Mbytes (distinct from heap & stack)
    total    = 5368709117 doubles =  40960.0 Mbytes
    verify   = yes
    hardfail = no 


           Directory information
           ---------------------
 
  0 permanent = .
  0 scratch   = .
 
 
 
 
                                NWChem Input Module
                                -------------------
 
 
                                       der1
                                       ----

 Scaling coordinates for geometry "geometry" by  1.889725989
 (inverse scale =  0.529177249)


          ------
          auto-z
          ------
  no constraints, skipping   0.000000000000000E+000
  no constraints, skipping   0.000000000000000E+000
 
 
                             Geometry "geometry" -> ""
                             -------------------------
 
 Output coordinates in angstroms (scale by  1.889725989 to convert to a.u.)
 
  No.       Tag          Charge          X              Y              Z
 ---- ---------------- ---------- -------------- -------------- --------------
    1 S                   16.0000     1.23117806    -0.05280310     0.65034358
    2 P                   15.0000    -0.11153162     0.99742341    -0.64399288
    3 O                    8.0000     0.70325785     2.32176571    -1.13880949
    4 O                    8.0000    -1.02579663     1.83043772     0.43301064
    5 C                    6.0000     0.51939995     3.46682519    -0.26448602
    6 C                    6.0000    -0.93081568     3.26598938     0.25874642
    7 C                    6.0000     1.56378270     3.41389595     0.83805494
    8 C                    6.0000     0.70781323     4.70858694    -1.10894842
    9 C                    6.0000    -1.98888323     3.67954111    -0.75200141
   10 C                    6.0000    -1.20028099     3.91105563     1.60132575
   11 H                    1.0000     1.53836690     4.32737141     1.43294182
   12 H                    1.0000     1.41448658     2.56709399     1.50840135
   13 H                    1.0000     2.55233656     3.32706057     0.38702394
   14 H                    1.0000     0.08138101     4.68675952    -1.99871820
   15 H                    1.0000     0.46271183     5.59966801    -0.52824856
   16 H                    1.0000     1.74971961     4.78535461    -1.42108549
   17 H                    1.0000    -2.03587714     4.76420074    -0.85070116
   18 H                    1.0000    -1.79476883     3.24922945    -1.73563941
   19 H                    1.0000    -2.96076805     3.32543640    -0.40755705
   20 H                    1.0000    -1.05360891     4.99076471     1.53644618
   21 H                    1.0000    -2.23461163     3.72844056     1.89396655
   22 H                    1.0000    -0.54738236     3.51398269     2.37611742
   23 C                    6.0000     1.00039003    -1.70643019    -0.06974101
   24 C                    6.0000    -0.14830783    -2.46232026     0.57447601
   25 N                    7.0000    -0.28431357    -3.79946901     0.03479998
   26 C                    6.0000     0.79589716    -4.69411461     0.45204069
   27 C                    6.0000     1.59915399    -5.25645406    -0.70754611
   28 C                    6.0000    -1.90267215    -5.58489292    -0.55550530
   29 C                    6.0000    -1.60750477    -4.35209739     0.27584533
   30 H                    1.0000     0.83679807    -1.60648894    -1.14420059
   31 H                    1.0000     1.95210352    -2.21816553     0.07420755
   32 H                    1.0000    -1.07291356    -1.91490367     0.37403989
   33 H                    1.0000    -0.01200891    -2.46061177     1.67006124
   34 H                    1.0000    -1.75027141    -4.59059092     1.34531324
   35 H                    1.0000    -2.33741659    -3.57758319     0.02935146
   36 H                    1.0000    -1.80578737    -5.36421990    -1.62012656
   37 H                    1.0000    -2.92152809    -5.92679051    -0.36414462
   38 H                    1.0000    -1.22936444    -6.40986183    -0.31613331
   39 H                    1.0000     0.38193075    -5.51811177     1.04535555
   40 H                    1.0000     1.46895592    -4.15714028     1.12852756
   41 H                    1.0000     0.96210202    -5.82760981    -1.38439790
   42 H                    1.0000     2.39083759    -5.91586920    -0.34334424
   43 H                    1.0000     2.06137299    -4.45276990    -1.28383492
 
      Atomic Mass 
      ----------- 
 
      S                 31.972070
      P                 30.973760
      O                 15.994910
      C                 12.000000
      H                  1.007825
      N                 14.003070
 

 Effective nuclear repulsion energy (a.u.)    1619.9649412948

            Nuclear Dipole moment (a.u.) 
            ----------------------------
        X                 Y               Z
 ---------------- ---------------- ----------------
    -0.0000000000    -0.0000000000     0.0000000000
 


                                Z-matrix (autoz)
                                -------- 

 Units are Angstrom for bonds and degrees for angles
 
      Type          Name      I     J     K     L     M      Value
      ----------- --------  ----- ----- ----- ----- ----- ----------
    1 Stretch                  1     2                       2.14036
    2 Stretch                  1    23                       1.81831
    3 Stretch                  2     3                       1.63175
    4 Stretch                  2     4                       1.64004
    5 Stretch                  3     5                       1.45238
    6 Stretch                  4     6                       1.44921
    7 Stretch                  5     6                       1.55475
    8 Stretch                  5     7                       1.51958
    9 Stretch                  5     8                       1.51347
   10 Stretch                  6     9                       1.52057
   11 Stretch                  6    10                       1.51368
   12 Stretch                  7    11                       1.09040
   13 Stretch                  7    12                       1.09029
   14 Stretch                  7    13                       1.09005
   15 Stretch                  8    14                       1.08839
   16 Stretch                  8    15                       1.09147
   17 Stretch                  8    16                       1.09036
   18 Stretch                  9    17                       1.09015
   19 Stretch                  9    18                       1.09105
   20 Stretch                  9    19                       1.09023
   21 Stretch                 10    20                       1.09156
   22 Stretch                 10    21                       1.09033
   23 Stretch                 10    22                       1.08823
   24 Stretch                 23    24                       1.51852
   25 Stretch                 23    30                       1.09143
   26 Stretch                 23    31                       1.09012
   27 Stretch                 24    25                       1.44835
   28 Stretch                 24    32                       1.09304
   29 Stretch                 24    33                       1.10403
   30 Stretch                 25    26                       1.46333
   31 Stretch                 25    29                       1.45408
   32 Stretch                 26    27                       1.51858
   33 Stretch                 26    39                       1.09652
   34 Stretch                 26    40                       1.09498
   35 Stretch                 27    41                       1.09095
   36 Stretch                 27    42                       1.09281
   37 Stretch                 27    43                       1.09163
   38 Stretch                 28    29                       1.51593
   39 Stretch                 28    36                       1.09156
   40 Stretch                 28    37                       1.09160
   41 Stretch                 28    38                       1.09143
   42 Stretch                 29    34                       1.10500
   43 Stretch                 29    35                       1.09243
   44 Bend                     1     2     3               105.56731
   45 Bend                     1     2     4               101.64335
   46 Bend                     1    23    24               112.37725
   47 Bend                     1    23    30               109.00251
   48 Bend                     1    23    31               105.29634
   49 Bend                     2     1    23                97.30376
   50 Bend                     2     3     5               113.21064
   51 Bend                     2     4     6               112.80744
   52 Bend                     3     2     4                93.74204
   53 Bend                     3     5     6               102.64041
   54 Bend                     3     5     7               108.80296
   55 Bend                     3     5     8               107.17030
   56 Bend                     4     6     5               103.27121
   57 Bend                     4     6     9               107.68202
   58 Bend                     4     6    10               107.68709
   59 Bend                     5     6     9               112.96801
   60 Bend                     5     6    10               114.17334
   61 Bend                     5     7    11               110.52643
   62 Bend                     5     7    12               112.27407
   63 Bend                     5     7    13               109.01707
   64 Bend                     5     8    14               111.59460
   65 Bend                     5     8    15               110.18334
   66 Bend                     5     8    16               109.66088
   67 Bend                     6     5     7               113.10377
   68 Bend                     6     5     8               114.19752
   69 Bend                     6     9    17               111.14795
   70 Bend                     6     9    18               111.60522
   71 Bend                     6     9    19               108.78142
   72 Bend                     6    10    20               110.17520
   73 Bend                     6    10    21               109.60644
   74 Bend                     6    10    22               111.66581
   75 Bend                     7     5     8               110.35598
   76 Bend                     9     6    10               110.47521
   77 Bend                    11     7    12               108.18166
   78 Bend                    11     7    13               108.27719
   79 Bend                    12     7    13               108.46419
   80 Bend                    14     8    15               108.78810
   81 Bend                    14     8    16               108.50369
   82 Bend                    15     8    16               108.02343
   83 Bend                    17     9    18               108.56973
   84 Bend                    17     9    19               108.26052
   85 Bend                    18     9    19               108.38112
   86 Bend                    20    10    21               108.00433
   87 Bend                    20    10    22               108.82148
   88 Bend                    21    10    22               108.47827
   89 Bend                    23    24    25               111.87111
   90 Bend                    23    24    32               108.22793
   91 Bend                    23    24    33               109.07682
   92 Bend                    24    23    30               110.47769
   93 Bend                    24    23    31               111.76028
   94 Bend                    24    25    26               112.88445
   95 Bend                    24    25    29               111.99697
   96 Bend                    25    24    32               108.33709
   97 Bend                    25    24    33               112.50632
   98 Bend                    25    26    27               113.52418
   99 Bend                    25    26    39               109.57394
  100 Bend                    25    26    40               109.27393
  101 Bend                    25    29    28               113.28738
  102 Bend                    25    29    34               111.10269
  103 Bend                    25    29    35               107.52702
  104 Bend                    26    25    29               113.08632
  105 Bend                    26    27    41               111.02319
  106 Bend                    26    27    42               110.61948
  107 Bend                    26    27    43               110.76012
  108 Bend                    27    26    39               109.54797
  109 Bend                    27    26    40               109.16070
  110 Bend                    28    29    34               109.27474
  111 Bend                    28    29    35               108.82780
  112 Bend                    29    28    36               110.68245
  113 Bend                    29    28    37               109.89558
  114 Bend                    29    28    38               111.98053
  115 Bend                    30    23    31               107.68837
  116 Bend                    32    24    33               106.59642
  117 Bend                    34    29    35               106.56349
  118 Bend                    36    28    37               108.49008
  119 Bend                    36    28    38               108.17736
  120 Bend                    37    28    38               107.49405
  121 Bend                    39    26    40               105.44324
  122 Bend                    41    27    42               108.29401
  123 Bend                    41    27    43               107.76790
  124 Bend                    42    27    43               108.26657
  125 Torsion                  1     2     3     5         -89.77055
  126 Torsion                  1     2     4     6         119.12460
  127 Torsion                  1    23    24    25        -177.41218
  128 Torsion                  1    23    24    32          63.30559
  129 Torsion                  1    23    24    33         -52.29421
  130 Torsion                  2     1    23    24         -88.61636
  131 Torsion                  2     1    23    30          34.19807
  132 Torsion                  2     1    23    31         149.49702
  133 Torsion                  2     3     5     6         -32.19445
  134 Torsion                  2     3     5     7          87.88335
  135 Torsion                  2     3     5     8        -152.78868
  136 Torsion                  2     4     6     5         -31.57594
  137 Torsion                  2     4     6     9          88.15945
  138 Torsion                  2     4     6    10        -152.69534
  139 Torsion                  3     2     1    23        -132.64202
  140 Torsion                  3     2     4     6          12.38209
  141 Torsion                  3     5     6     4          37.78915
  142 Torsion                  3     5     6     9         -78.24452
  143 Torsion                  3     5     6    10         154.40624
  144 Torsion                  3     5     7    11         172.44767
  145 Torsion                  3     5     7    12         -66.66108
  146 Torsion                  3     5     7    13          53.54964
  147 Torsion                  3     5     8    14          52.26129
  148 Torsion                  3     5     8    15         173.22835
  149 Torsion                  3     5     8    16         -67.99524
  150 Torsion                  4     2     1    23         130.08602
  151 Torsion                  4     2     3     5          13.41899
  152 Torsion                  4     6     5     7         -79.26289
  153 Torsion                  4     6     5     8         153.41334
  154 Torsion                  4     6     9    17         174.21592
  155 Torsion                  4     6     9    18         -64.42132
  156 Torsion                  4     6     9    19          55.11120
  157 Torsion                  4     6    10    20         175.09423
  158 Torsion                  4     6    10    21         -66.19123
  159 Torsion                  4     6    10    22          54.04298
  160 Torsion                  5     6     9    17         -72.40579
  161 Torsion                  5     6     9    18          48.95697
  162 Torsion                  5     6     9    19         168.48949
  163 Torsion                  5     6    10    20          61.06218
  164 Torsion                  5     6    10    21         179.77672
  165 Torsion                  5     6    10    22         -59.98907
  166 Torsion                  6     5     7    11         -74.18767
  167 Torsion                  6     5     7    12          46.70357
  168 Torsion                  6     5     7    13         166.91429
  169 Torsion                  6     5     8    14         -60.69000
  170 Torsion                  6     5     8    15          60.27705
  171 Torsion                  6     5     8    16         179.05346
  172 Torsion                  7     5     6     9         164.70344
  173 Torsion                  7     5     6    10          37.35420
  174 Torsion                  7     5     8    14         170.58553
  175 Torsion                  7     5     8    15         -68.44741
  176 Torsion                  7     5     8    16          50.32900
  177 Torsion                  8     5     6     9          37.37968
  178 Torsion                  8     5     6    10         -89.96957
  179 Torsion                  8     5     7    11          55.12790
  180 Torsion                  8     5     7    12         176.01914
  181 Torsion                  8     5     7    13         -63.77014
  182 Torsion                  9     6    10    20         -67.55899
  183 Torsion                  9     6    10    21          51.15554
  184 Torsion                  9     6    10    22         171.38976
  185 Torsion                 10     6     9    17          56.86602
  186 Torsion                 10     6     9    18         178.22878
  187 Torsion                 10     6     9    19         -62.23869
  188 Torsion                 23    24    25    26          71.02682
  189 Torsion                 23    24    25    29        -159.95658
  190 Torsion                 24    25    26    27        -119.93396
  191 Torsion                 24    25    26    39         117.23988
  192 Torsion                 24    25    26    40           2.16928
  193 Torsion                 24    25    29    28         165.71622
  194 Torsion                 24    25    29    34         -70.82670
  195 Torsion                 24    25    29    35          45.42579
  196 Torsion                 25    24    23    30          60.60764
  197 Torsion                 25    24    23    31         -59.27894
  198 Torsion                 25    26    27    41         -59.75711
  199 Torsion                 25    26    27    42         179.98436
  200 Torsion                 25    26    27    43          59.93310
  201 Torsion                 25    29    28    36         -57.72165
  202 Torsion                 25    29    28    37        -177.53204
  203 Torsion                 25    29    28    38          63.07321
  204 Torsion                 26    25    24    32        -169.75536
  205 Torsion                 26    25    24    33         -52.17167
  206 Torsion                 26    25    29    28         -65.37305
  207 Torsion                 26    25    29    34          58.08403
  208 Torsion                 26    25    29    35         174.33652
  209 Torsion                 27    26    25    29         111.61312
  210 Torsion                 29    25    24    32         -40.73875
  211 Torsion                 29    25    24    33          76.84494
  212 Torsion                 29    25    26    39         -11.21304
  213 Torsion                 29    25    26    40        -126.28364
  214 Torsion                 30    23    24    32         -58.67459
  215 Torsion                 30    23    24    33        -174.27439
  216 Torsion                 31    23    24    32        -178.56117
  217 Torsion                 31    23    24    33          65.83903
  218 Torsion                 34    29    28    36         177.82307
  219 Torsion                 34    29    28    37          58.01268
  220 Torsion                 34    29    28    38         -61.38207
  221 Torsion                 35    29    28    36          61.82658
  222 Torsion                 35    29    28    37         -57.98381
  223 Torsion                 35    29    28    38        -177.37856
  224 Torsion                 39    26    27    41          63.08335
  225 Torsion                 39    26    27    42         -57.17518
  226 Torsion                 39    26    27    43        -177.22644
  227 Torsion                 40    26    27    41         178.07681
  228 Torsion                 40    26    27    42          57.81828
  229 Torsion                 40    26    27    43         -62.23297
 
 
            XYZ format geometry
            -------------------
    43
 geometry
 S                     1.23117806    -0.05280310     0.65034358
 P                    -0.11153162     0.99742341    -0.64399288
 O                     0.70325785     2.32176571    -1.13880949
 O                    -1.02579663     1.83043772     0.43301064
 C                     0.51939995     3.46682519    -0.26448602
 C                    -0.93081568     3.26598938     0.25874642
 C                     1.56378270     3.41389595     0.83805494
 C                     0.70781323     4.70858694    -1.10894842
 C                    -1.98888323     3.67954111    -0.75200141
 C                    -1.20028099     3.91105563     1.60132575
 H                     1.53836690     4.32737141     1.43294182
 H                     1.41448658     2.56709399     1.50840135
 H                     2.55233656     3.32706057     0.38702394
 H                     0.08138101     4.68675952    -1.99871820
 H                     0.46271183     5.59966801    -0.52824856
 H                     1.74971961     4.78535461    -1.42108549
 H                    -2.03587714     4.76420074    -0.85070116
 H                    -1.79476883     3.24922945    -1.73563941
 H                    -2.96076805     3.32543640    -0.40755705
 H                    -1.05360891     4.99076471     1.53644618
 H                    -2.23461163     3.72844056     1.89396655
 H                    -0.54738236     3.51398269     2.37611742
 C                     1.00039003    -1.70643019    -0.06974101
 C                    -0.14830783    -2.46232026     0.57447601
 N                    -0.28431357    -3.79946901     0.03479998
 C                     0.79589716    -4.69411461     0.45204069
 C                     1.59915399    -5.25645406    -0.70754611
 C                    -1.90267215    -5.58489292    -0.55550530
 C                    -1.60750477    -4.35209739     0.27584533
 H                     0.83679807    -1.60648894    -1.14420059
 H                     1.95210352    -2.21816553     0.07420755
 H                    -1.07291356    -1.91490367     0.37403989
 H                    -0.01200891    -2.46061177     1.67006124
 H                    -1.75027141    -4.59059092     1.34531324
 H                    -2.33741659    -3.57758319     0.02935146
 H                    -1.80578737    -5.36421990    -1.62012656
 H                    -2.92152809    -5.92679051    -0.36414462
 H                    -1.22936444    -6.40986183    -0.31613331
 H                     0.38193075    -5.51811177     1.04535555
 H                     1.46895592    -4.15714028     1.12852756
 H                     0.96210202    -5.82760981    -1.38439790
 H                     2.39083759    -5.91586920    -0.34334424
 H                     2.06137299    -4.45276990    -1.28383492
 
 ==============================================================================
                                internuclear distances
 ------------------------------------------------------------------------------
       center one      |      center two      | atomic units |  angstroms
 ------------------------------------------------------------------------------
    2 P                |   1 S                |     4.04470  |     2.14036
    3 O                |   2 P                |     3.08356  |     1.63175
    4 O                |   2 P                |     3.09923  |     1.64004
    5 C                |   3 O                |     2.74460  |     1.45238
    6 C                |   4 O                |     2.73860  |     1.44921
    6 C                |   5 C                |     2.93804  |     1.55475
    7 C                |   5 C                |     2.87160  |     1.51958
    8 C                |   5 C                |     2.86004  |     1.51347
    9 C                |   6 C                |     2.87347  |     1.52057
   10 C                |   6 C                |     2.86045  |     1.51368
   11 H                |   7 C                |     2.06056  |     1.09040
   12 H                |   7 C                |     2.06034  |     1.09029
   13 H                |   7 C                |     2.05990  |     1.09005
   14 H                |   8 C                |     2.05675  |     1.08839
   15 H                |   8 C                |     2.06258  |     1.09147
   16 H                |   8 C                |     2.06049  |     1.09036
   17 H                |   9 C                |     2.06009  |     1.09015
   18 H                |   9 C                |     2.06179  |     1.09105
   19 H                |   9 C                |     2.06023  |     1.09023
   20 H                |  10 C                |     2.06274  |     1.09156
   21 H                |  10 C                |     2.06043  |     1.09033
   22 H                |  10 C                |     2.05646  |     1.08823
   23 C                |   1 S                |     3.43612  |     1.81831
   24 C                |  23 C                |     2.86958  |     1.51852
   25 N                |  24 C                |     2.73698  |     1.44835
   26 C                |  25 N                |     2.76529  |     1.46333
   27 C                |  26 C                |     2.86970  |     1.51858
   29 C                |  25 N                |     2.74780  |     1.45408
   29 C                |  28 C                |     2.86470  |     1.51593
   30 H                |  23 C                |     2.06250  |     1.09143
   31 H                |  23 C                |     2.06002  |     1.09012
   32 H                |  24 C                |     2.06555  |     1.09304
   33 H                |  24 C                |     2.08632  |     1.10403
   34 H                |  29 C                |     2.08815  |     1.10500
   35 H                |  29 C                |     2.06439  |     1.09243
   36 H                |  28 C                |     2.06275  |     1.09156
   37 H                |  28 C                |     2.06282  |     1.09160
   38 H                |  28 C                |     2.06250  |     1.09143
   39 H                |  26 C                |     2.07213  |     1.09652
   40 H                |  26 C                |     2.06921  |     1.09498
   41 H                |  27 C                |     2.06161  |     1.09095
   42 H                |  27 C                |     2.06511  |     1.09281
   43 H                |  27 C                |     2.06289  |     1.09163
 ------------------------------------------------------------------------------
                         number of included internuclear distances:         43
 ==============================================================================



 ==============================================================================
                                 internuclear angles
 ------------------------------------------------------------------------------
        center 1       |       center 2       |       center 3       |  degrees
 ------------------------------------------------------------------------------
    2 P                |   1 S                |  23 C                |    97.30
    1 S                |   2 P                |   3 O                |   105.57
    1 S                |   2 P                |   4 O                |   101.64
    3 O                |   2 P                |   4 O                |    93.74
    2 P                |   3 O                |   5 C                |   113.21
    2 P                |   4 O                |   6 C                |   112.81
    3 O                |   5 C                |   6 C                |   102.64
    3 O                |   5 C                |   7 C                |   108.80
    3 O                |   5 C                |   8 C                |   107.17
    6 C                |   5 C                |   7 C                |   113.10
    6 C                |   5 C                |   8 C                |   114.20
    7 C                |   5 C                |   8 C                |   110.36
    4 O                |   6 C                |   5 C                |   103.27
    4 O                |   6 C                |   9 C                |   107.68
    4 O                |   6 C                |  10 C                |   107.69
    5 C                |   6 C                |   9 C                |   112.97
    5 C                |   6 C                |  10 C                |   114.17
    9 C                |   6 C                |  10 C                |   110.48
    5 C                |   7 C                |  11 H                |   110.53
    5 C                |   7 C                |  12 H                |   112.27
    5 C                |   7 C                |  13 H                |   109.02
   11 H                |   7 C                |  12 H                |   108.18
   11 H                |   7 C                |  13 H                |   108.28
   12 H                |   7 C                |  13 H                |   108.46
    5 C                |   8 C                |  14 H                |   111.59
    5 C                |   8 C                |  15 H                |   110.18
    5 C                |   8 C                |  16 H                |   109.66
   14 H                |   8 C                |  15 H                |   108.79
   14 H                |   8 C                |  16 H                |   108.50
   15 H                |   8 C                |  16 H                |   108.02
    6 C                |   9 C                |  17 H                |   111.15
    6 C                |   9 C                |  18 H                |   111.61
    6 C                |   9 C                |  19 H                |   108.78
   17 H                |   9 C                |  18 H                |   108.57
   17 H                |   9 C                |  19 H                |   108.26
   18 H                |   9 C                |  19 H                |   108.38
    6 C                |  10 C                |  20 H                |   110.18
    6 C                |  10 C                |  21 H                |   109.61
    6 C                |  10 C                |  22 H                |   111.67
   20 H                |  10 C                |  21 H                |   108.00
   20 H                |  10 C                |  22 H                |   108.82
   21 H                |  10 C                |  22 H                |   108.48
    1 S                |  23 C                |  24 C                |   112.38
    1 S                |  23 C                |  30 H                |   109.00
    1 S                |  23 C                |  31 H                |   105.30
   24 C                |  23 C                |  30 H                |   110.48
   24 C                |  23 C                |  31 H                |   111.76
   30 H                |  23 C                |  31 H                |   107.69
   23 C                |  24 C                |  25 N                |   111.87
   23 C                |  24 C                |  32 H                |   108.23
   23 C                |  24 C                |  33 H                |   109.08
   25 N                |  24 C                |  32 H                |   108.34
   25 N                |  24 C                |  33 H                |   112.51
   32 H                |  24 C                |  33 H                |   106.60
   24 C                |  25 N                |  26 C                |   112.88
   24 C                |  25 N                |  29 C                |   112.00
   26 C                |  25 N                |  29 C                |   113.09
   25 N                |  26 C                |  27 C                |   113.52
   25 N                |  26 C                |  39 H                |   109.57
   25 N                |  26 C                |  40 H                |   109.27
   27 C                |  26 C                |  39 H                |   109.55
   27 C                |  26 C                |  40 H                |   109.16
   39 H                |  26 C                |  40 H                |   105.44
   26 C                |  27 C                |  41 H                |   111.02
   26 C                |  27 C                |  42 H                |   110.62
   26 C                |  27 C                |  43 H                |   110.76
   41 H                |  27 C                |  42 H                |   108.29
   41 H                |  27 C                |  43 H                |   107.77
   42 H                |  27 C                |  43 H                |   108.27
   29 C                |  28 C                |  36 H                |   110.68
   29 C                |  28 C                |  37 H                |   109.90
   29 C                |  28 C                |  38 H                |   111.98
   36 H                |  28 C                |  37 H                |   108.49
   36 H                |  28 C                |  38 H                |   108.18
   37 H                |  28 C                |  38 H                |   107.49
   25 N                |  29 C                |  28 C                |   113.29
   25 N                |  29 C                |  34 H                |   111.10
   25 N                |  29 C                |  35 H                |   107.53
   28 C                |  29 C                |  34 H                |   109.27
   28 C                |  29 C                |  35 H                |   108.83
   34 H                |  29 C                |  35 H                |   106.56
 ------------------------------------------------------------------------------
                            number of included internuclear angles:         81
 ==============================================================================





 Summary of "ao basis" -> "" (cartesian)
 ------------------------------------------------------------------------------
       Tag                 Description            Shells   Functions and Types
 ---------------- ------------------------------  ------  ---------------------
 *                          cc-pvdz                   on all atoms 


 
                                 NWChem DFT Module
                                 -----------------
 
 
                                       der1
 
 
                      Basis "ao basis" -> "ao basis" (cartesian)
                      -----
  S (Sulphur)
  -----------
            Exponent  Coefficients 
       -------------- ---------------------------------------------------------
  1 S  1.10800000E+05  0.000248
  1 S  1.66100000E+04  0.001920
  1 S  3.78100000E+03  0.009962
  1 S  1.07100000E+03  0.040297
  1 S  3.49800000E+02  0.128604
  1 S  1.26300000E+02  0.303480
  1 S  4.92600000E+01  0.421432
  1 S  2.01600000E+01  0.230781
  1 S  5.72000000E+00  0.017897
  1 S  2.18200000E+00 -0.002975
  1 S  4.32700000E-01  0.000850
 
  2 S  1.10800000E+05 -0.000069
  2 S  1.66100000E+04 -0.000528
  2 S  3.78100000E+03 -0.002797
  2 S  1.07100000E+03 -0.011265
  2 S  3.49800000E+02 -0.038883
  2 S  1.26300000E+02 -0.099502
  2 S  4.92600000E+01 -0.199740
  2 S  2.01600000E+01 -0.123360
  2 S  5.72000000E+00  0.513194
  2 S  2.18200000E+00  0.607120
  2 S  4.32700000E-01  0.039675
 
  3 S  1.10800000E+05  0.000020
  3 S  1.66100000E+04  0.000153
  3 S  3.78100000E+03  0.000810
  3 S  1.07100000E+03  0.003290
  3 S  3.49800000E+02  0.011297
  3 S  1.26300000E+02  0.029638
  3 S  4.92600000E+01  0.059985
  3 S  2.01600000E+01  0.041325
  3 S  5.72000000E+00 -0.207474
  3 S  2.18200000E+00 -0.392889
  3 S  4.32700000E-01  0.632840
 
  4 S  1.57000000E-01  1.000000
 
  5 P  3.99700000E+02  0.004475
  5 P  9.41900000E+01  0.034171
  5 P  2.97500000E+01  0.144250
  5 P  1.07700000E+01  0.353928
  5 P  4.11900000E+00  0.459085
  5 P  1.62500000E+00  0.206383
  5 P  4.72600000E-01  0.010214
 
  6 P  3.99700000E+02 -0.001163
  6 P  9.41900000E+01 -0.008657
  6 P  2.97500000E+01 -0.039089
  6 P  1.07700000E+01 -0.093462
  6 P  4.11900000E+00 -0.147994
  6 P  1.62500000E+00  0.030190
  6 P  4.72600000E-01  0.561573
 
  7 P  1.40700000E-01  1.000000
 
  8 D  4.79000000E-01  1.000000
 
  P (Phosphorous)
  ---------------
            Exponent  Coefficients 
       -------------- ---------------------------------------------------------
  1 S  9.48400000E+04  0.000256
  1 S  1.42200000E+04  0.001982
  1 S  3.23600000E+03  0.010276
  1 S  9.17100000E+02  0.041482
  1 S  2.99500000E+02  0.131984
  1 S  1.08100000E+02  0.308662
  1 S  4.21800000E+01  0.420647
  1 S  1.72800000E+01  0.222878
  1 S  4.85800000E+00  0.016403
  1 S  1.81800000E+00 -0.002543
  1 S  3.37200000E-01  0.000748
 
  2 S  9.48400000E+04 -0.000070
  2 S  1.42200000E+04 -0.000535
  2 S  3.23600000E+03 -0.002837
  2 S  9.17100000E+02 -0.011398
  2 S  2.99500000E+02 -0.039293
  2 S  1.08100000E+02 -0.099636
  2 S  4.21800000E+01 -0.197983
  2 S  1.72800000E+01 -0.114860
  2 S  4.85800000E+00  0.518595
  2 S  1.81800000E+00  0.601847
  2 S  3.37200000E-01  0.036861
 
  3 S  9.48400000E+04  0.000019
  3 S  1.42200000E+04  0.000147
  3 S  3.23600000E+03  0.000778
  3 S  9.17100000E+02  0.003145
  3 S  2.99500000E+02  0.010820
  3 S  1.08100000E+02  0.027996
  3 S  4.21800000E+01  0.056398
  3 S  1.72800000E+01  0.035819
  3 S  4.85800000E+00 -0.193387
  3 S  1.81800000E+00 -0.372097
  3 S  3.37200000E-01  0.624246
 
  4 S  1.23200000E-01  1.000000
 
  5 P  3.70500000E+02  0.003950
  5 P  8.73300000E+01  0.030249
  5 P  2.75900000E+01  0.129554
  5 P  1.00000000E+01  0.327594
  5 P  3.82500000E+00  0.456992
  5 P  1.49400000E+00  0.253086
  5 P  3.92100000E-01  0.016880
 
  6 P  3.70500000E+02 -0.000960
  6 P  8.73300000E+01 -0.007112
  6 P  2.75900000E+01 -0.032712
  6 P  1.00000000E+01 -0.079578
  6 P  3.82500000E+00 -0.135016
  6 P  1.49400000E+00 -0.009106
  6 P  3.92100000E-01  0.537802
 
  7 P  1.18600000E-01  1.000000
 
  8 D  3.73000000E-01  1.000000
 
  O (Oxygen)
  ----------
            Exponent  Coefficients 
       -------------- ---------------------------------------------------------
  1 S  1.17200000E+04  0.000710
  1 S  1.75900000E+03  0.005470
  1 S  4.00800000E+02  0.027837
  1 S  1.13700000E+02  0.104800
  1 S  3.70300000E+01  0.283062
  1 S  1.32700000E+01  0.448719
  1 S  5.02500000E+00  0.270952
  1 S  1.01300000E+00  0.015458
 
  2 S  1.17200000E+04 -0.000160
  2 S  1.75900000E+03 -0.001263
  2 S  4.00800000E+02 -0.006267
  2 S  1.13700000E+02 -0.025716
  2 S  3.70300000E+01 -0.070924
  2 S  1.32700000E+01 -0.165411
  2 S  5.02500000E+00 -0.116955
  2 S  1.01300000E+00  0.557368
 
  3 S  3.02300000E-01  1.000000
 
  4 P  1.77000000E+01  0.043018
  4 P  3.85400000E+00  0.228913
  4 P  1.04600000E+00  0.508728
 
  5 P  2.75300000E-01  1.000000
 
  6 D  1.18500000E+00  1.000000
 
  C (Carbon)
  ----------
            Exponent  Coefficients 
       -------------- ---------------------------------------------------------
  1 S  6.66500000E+03  0.000692
  1 S  1.00000000E+03  0.005329
  1 S  2.28000000E+02  0.027077
  1 S  6.47100000E+01  0.101718
  1 S  2.10600000E+01  0.274740
  1 S  7.49500000E+00  0.448564
  1 S  2.79700000E+00  0.285074
  1 S  5.21500000E-01  0.015204
 
  2 S  6.66500000E+03 -0.000146
  2 S  1.00000000E+03 -0.001154
  2 S  2.28000000E+02 -0.005725
  2 S  6.47100000E+01 -0.023312
  2 S  2.10600000E+01 -0.063955
  2 S  7.49500000E+00 -0.149981
  2 S  2.79700000E+00 -0.127262
  2 S  5.21500000E-01  0.544529
 
  3 S  1.59600000E-01  1.000000
 
  4 P  9.43900000E+00  0.038109
  4 P  2.00200000E+00  0.209480
  4 P  5.45600000E-01  0.508557
 
  5 P  1.51700000E-01  1.000000
 
  6 D  5.50000000E-01  1.000000
 
  H (Hydrogen)
  ------------
            Exponent  Coefficients 
       -------------- ---------------------------------------------------------
  1 S  1.30100000E+01  0.019685
  1 S  1.96200000E+00  0.137977
  1 S  4.44600000E-01  0.478148
 
  2 S  1.22000000E-01  1.000000
 
  3 P  7.27000000E-01  1.000000
 
  N (Nitrogen)
  ------------
            Exponent  Coefficients 
       -------------- ---------------------------------------------------------
  1 S  9.04600000E+03  0.000700
  1 S  1.35700000E+03  0.005389
  1 S  3.09300000E+02  0.027406
  1 S  8.77300000E+01  0.103207
  1 S  2.85600000E+01  0.278723
  1 S  1.02100000E+01  0.448540
  1 S  3.83800000E+00  0.278238
  1 S  7.46600000E-01  0.015440
 
  2 S  9.04600000E+03 -0.000153
  2 S  1.35700000E+03 -0.001208
  2 S  3.09300000E+02 -0.005992
  2 S  8.77300000E+01 -0.024544
  2 S  2.85600000E+01 -0.067459
  2 S  1.02100000E+01 -0.158078
  2 S  3.83800000E+00 -0.121831
  2 S  7.46600000E-01  0.549003
 
  3 S  2.24800000E-01  1.000000
 
  4 P  1.35500000E+01  0.039919
  4 P  2.91700000E+00  0.217169
  4 P  7.97300000E-01  0.510319
 
  5 P  2.18500000E-01  1.000000
 
  6 D  8.17000000E-01  1.000000
 


 Summary of "ao basis" -> "ao basis" (cartesian)
 ------------------------------------------------------------------------------
       Tag                 Description            Shells   Functions and Types
 ---------------- ------------------------------  ------  ---------------------
 S                          cc-pvdz                  8       19   4s3p1d
 P                          cc-pvdz                  8       19   4s3p1d
 O                          cc-pvdz                  6       15   3s2p1d
 C                          cc-pvdz                  6       15   3s2p1d
 H                          cc-pvdz                  3        5   2s1p
 N                          cc-pvdz                  6       15   3s2p1d


 
 
 solvent parameters
 solvname_short: chcl3   
 solvname_long:  chloroform                         
 dielec:        4.7113
 dielecinf:     2.0906

          ---------------
          -cosmo- solvent
          ---------------
 Cosmo: York-Karplus, doi: 10.1021/jp992097l
 dielectric constant -eps-     =   4.71
 screen = (eps-1)/(eps    )    =   0.78774
 surface charge correction     = lagrangian
 -lineq- algorithm             =   0
 -bem- low  level              =   2
 -bem- from -octahedral-
 gaussian surface charge width =   0.98000
 degree of switching           =   1.00000
 switching function tolerance  =   0.00010
 atomic radii = 
 --------------
    1 16.000  2.160
    2 15.000  2.106
    3  8.000  1.720
    4  8.000  1.720
    5  6.000  2.000
    6  6.000  2.000
    7  6.000  2.000
    8  6.000  2.000
    9  6.000  2.000
   10  6.000  2.000
   11  1.000  1.300
   12  1.000  1.300
   13  1.000  1.300
   14  1.000  1.300
   15  1.000  1.300
   16  1.000  1.300
   17  1.000  1.300
   18  1.000  1.300
   19  1.000  1.300
   20  1.000  1.300
   21  1.000  1.300
   22  1.000  1.300
   23  6.000  2.000
   24  6.000  2.000
   25  7.000  1.830
   26  6.000  2.000
   27  6.000  2.000
   28  6.000  2.000
   29  6.000  2.000
   30  1.000  1.300
   31  1.000  1.300
   32  1.000  1.300
   33  1.000  1.300
   34  1.000  1.300
   35  1.000  1.300
   36  1.000  1.300
   37  1.000  1.300
   38  1.000  1.300
   39  1.000  1.300
   40  1.000  1.300
   41  1.000  1.300
   42  1.000  1.300
   43  1.000  1.300

 solvent accessible surface
 --------------------------

 ---------- ATOMIC COORDINATES (A.U.) ------------ VDWR(ANG.) --
     1    2.32658918   -0.09978340    1.22897117     2.160
     2   -0.21076421    1.88485694   -1.21697009     2.106
     3    1.32896464    4.38750101   -2.15203789     1.720
     4   -1.93847454    3.45902573    0.81827147     1.720
     5    0.98152359    6.55134966   -0.49980611     2.000
     6   -1.75898659    6.17182502    0.48895984     2.000
     7    2.95512081    6.45132789    1.58369420     2.000
     8    1.33757305    8.89793911   -2.09560866     2.000
     9   -3.75844433    6.95332446   -1.42107661     2.000
    10   -2.26820218    7.39082346    3.02606689     2.000
    11    2.90709191    8.17754621    2.70786739     1.300
    12    2.67299206    4.85110423    2.85046524     1.300
    13    4.82321672    6.28723283    0.73136919     1.300
    14    0.15378780    8.85669127   -3.77702973     1.300
    15    0.87439856   10.58183816   -0.99824503     1.300
    16    3.30649062    9.04300898   -2.68546219     1.300
    17   -3.84724995    9.00303394   -1.60759210     1.300
    18   -3.39162129    6.14015334   -3.27988289     1.300
    19   -5.59504032    6.28416359   -0.77017115     1.300
    20   -1.99103214    9.43117777    2.90346227     1.300
    21   -4.22280367    7.04573102    3.57907780     1.300
    22   -1.03440267    6.64046442    4.49021083     1.300
    23    1.89046304   -3.22468548   -0.13179141     2.000
    24   -0.28026116   -4.65311059    1.08560225     2.000
    25   -0.53727475   -7.17995533    0.06576242     1.830
    26    1.50402755   -8.87059036    0.85423304     2.000
    27    3.02196285   -9.93325785   -1.33706828     2.000
    28   -3.59552900  -10.55391729   -1.04975281     2.000
    29   -3.03774353   -8.22427154    0.52127208     2.000
    30    1.58131906   -3.03582390   -2.16222559     1.300
    31    3.68894076   -4.19172504    0.14023193     1.300
    32   -2.02751264   -3.61864323    0.70683289     1.300
    33   -0.02269356   -4.64988201    3.15595813     1.300
    34   -3.30753337   -8.67495897    2.54227340     1.300
    35   -4.41707688   -6.76065194    0.05546622     1.300
    36   -3.41244332  -10.13690575   -3.06159526     1.300
    37   -5.52088756  -11.20001006   -0.68813355     1.300
    38   -2.32316193  -12.11288247   -0.59740534     1.300
    39    0.72174447  -10.42771922    1.97543556     1.300
    40    2.77592417   -7.85585603    2.13260785     1.300
    41    1.81810919  -11.01258571   -2.61613269     1.300
    42    4.51802794  -11.17937177   -0.64882653     1.300
    43    3.89543010   -8.41451500   -2.42609622     1.300
 number of segments per atom =         32
 number of   points per atom =         32
 atom (   nspa,  nppa )
 ----------------------
    1 (     17,     0 )       0
    2 (     14,     0 )       0
    3 (     11,     0 )       0
    4 (      9,     0 )       0
    5 (      1,     0 )       0
    6 (      2,     0 )       0
    7 (     14,     0 )       0
    8 (     15,     0 )       0
    9 (     13,     0 )       0
   10 (     12,     0 )       0
   11 (     13,     0 )       0
   12 (      9,     0 )       0
   13 (     14,     0 )       0
   14 (     13,     0 )       0
   15 (     15,     0 )       0
   16 (     13,     0 )       0
   17 (     14,     0 )       0
   18 (     13,     0 )       0
   19 (     13,     0 )       0
   20 (     16,     0 )       0
   21 (     13,     0 )       0
   22 (     12,     0 )       0
   23 (      8,     0 )       0
   24 (      9,     0 )       0
   25 (      5,     0 )       0
   26 (      9,     0 )       0
   27 (     18,     0 )       0
   28 (     14,     0 )       0
   29 (     10,     0 )       0
   30 (     15,     0 )       0
   31 (     13,     0 )       0
   32 (     14,     0 )       0
   33 (     16,     0 )       0
   34 (     14,     0 )       0
   35 (     14,     0 )       0
   36 (     15,     0 )       0
   37 (     14,     0 )       0
   38 (     14,     0 )       0
   39 (     12,     0 )       0
   40 (     13,     0 )       0
   41 (     15,     0 )       0
   42 (     15,     0 )       0
   43 (     15,     0 )       0
 number of -cosmo- surface points =      538
 molecular surface =    328.564 angstrom**2
 molecular volume  =    183.502 angstrom**3
 G(cav/disp)       =      2.503 kcal/mol
 ...... end of -cosmo- initialization ......


  Caching 1-el integrals 
   Time after variat. SCF:     30.5
   Time prior to 1st pass:     30.5
  Resetting Diis


         Total DFT energy =    -1417.782331442096
      One electron energy =    -5165.222695301301
           Coulomb energy =     2274.687090851975
    Exchange-Corr. energy =     -148.186819116942
 Nuclear repulsion energy =     1619.964941294847

             COSMO energy =        0.975150829324

 Numeric. integr. density =      152.000003047086

     Total iterative time =   1073.9s


                                   COSMO solvation results
                                   -----------------------

                 gas phase energy =     -1417.773343403123
                 sol phase energy =     -1417.782331442096
 (electrostatic) solvation energy =         0.008988038973 (    5.64 kcal/mol)
 
 
                                NWChem Input Module
                                -------------------
 
 
                              NWChem Property Module
                              ----------------------
 
 
                                 NWChem DFT Module
                                 -----------------
 
 
                                       der1
 
 
 
 
 solvent parameters
 solvname_short: chcl3   
 solvname_long:  chloroform                         
 dielec:        4.7113
 dielecinf:     2.0906

          ---------------
          -cosmo- solvent
          ---------------
 Cosmo: York-Karplus, doi: 10.1021/jp992097l
 dielectric constant -eps-     =   4.71
 screen = (eps-1)/(eps    )    =   0.78774
 surface charge correction     = lagrangian
 -lineq- algorithm             =   0
 -bem- low  level              =   2
 -bem- from -octahedral-
 gaussian surface charge width =   0.98000
 degree of switching           =   1.00000
 switching function tolerance  =   0.00010
 atomic radii = 
 --------------
    1 16.000  2.160
    2 15.000  2.106
    3  8.000  1.720
    4  8.000  1.720
    5  6.000  2.000
    6  6.000  2.000
    7  6.000  2.000
    8  6.000  2.000
    9  6.000  2.000
   10  6.000  2.000
   11  1.000  1.300
   12  1.000  1.300
   13  1.000  1.300
   14  1.000  1.300
   15  1.000  1.300
   16  1.000  1.300
   17  1.000  1.300
   18  1.000  1.300
   19  1.000  1.300
   20  1.000  1.300
   21  1.000  1.300
   22  1.000  1.300
   23  6.000  2.000
   24  6.000  2.000
   25  7.000  1.830
   26  6.000  2.000
   27  6.000  2.000
   28  6.000  2.000
   29  6.000  2.000
   30  1.000  1.300
   31  1.000  1.300
   32  1.000  1.300
   33  1.000  1.300
   34  1.000  1.300
   35  1.000  1.300
   36  1.000  1.300
   37  1.000  1.300
   38  1.000  1.300
   39  1.000  1.300
   40  1.000  1.300
   41  1.000  1.300
   42  1.000  1.300
   43  1.000  1.300

 solvent accessible surface
 --------------------------

 ---------- ATOMIC COORDINATES (A.U.) ------------ VDWR(ANG.) --
     1    2.32658918   -0.09978340    1.22897117     2.160
     2   -0.21076421    1.88485694   -1.21697009     2.106
     3    1.32896464    4.38750101   -2.15203789     1.720
     4   -1.93847454    3.45902573    0.81827147     1.720
     5    0.98152359    6.55134966   -0.49980611     2.000
     6   -1.75898659    6.17182502    0.48895984     2.000
     7    2.95512081    6.45132789    1.58369420     2.000
     8    1.33757305    8.89793911   -2.09560866     2.000
     9   -3.75844433    6.95332446   -1.42107661     2.000
    10   -2.26820218    7.39082346    3.02606689     2.000
    11    2.90709191    8.17754621    2.70786739     1.300
    12    2.67299206    4.85110423    2.85046524     1.300
    13    4.82321672    6.28723283    0.73136919     1.300
    14    0.15378780    8.85669127   -3.77702973     1.300
    15    0.87439856   10.58183816   -0.99824503     1.300
    16    3.30649062    9.04300898   -2.68546219     1.300
    17   -3.84724995    9.00303394   -1.60759210     1.300
    18   -3.39162129    6.14015334   -3.27988289     1.300
    19   -5.59504032    6.28416359   -0.77017115     1.300
    20   -1.99103214    9.43117777    2.90346227     1.300
    21   -4.22280367    7.04573102    3.57907780     1.300
    22   -1.03440267    6.64046442    4.49021083     1.300
    23    1.89046304   -3.22468548   -0.13179141     2.000
    24   -0.28026116   -4.65311059    1.08560225     2.000
    25   -0.53727475   -7.17995533    0.06576242     1.830
    26    1.50402755   -8.87059036    0.85423304     2.000
    27    3.02196285   -9.93325785   -1.33706828     2.000
    28   -3.59552900  -10.55391729   -1.04975281     2.000
    29   -3.03774353   -8.22427154    0.52127208     2.000
    30    1.58131906   -3.03582390   -2.16222559     1.300
    31    3.68894076   -4.19172504    0.14023193     1.300
    32   -2.02751264   -3.61864323    0.70683289     1.300
    33   -0.02269356   -4.64988201    3.15595813     1.300
    34   -3.30753337   -8.67495897    2.54227340     1.300
    35   -4.41707688   -6.76065194    0.05546622     1.300
    36   -3.41244332  -10.13690575   -3.06159526     1.300
    37   -5.52088756  -11.20001006   -0.68813355     1.300
    38   -2.32316193  -12.11288247   -0.59740534     1.300
    39    0.72174447  -10.42771922    1.97543556     1.300
    40    2.77592417   -7.85585603    2.13260785     1.300
    41    1.81810919  -11.01258571   -2.61613269     1.300
    42    4.51802794  -11.17937177   -0.64882653     1.300
    43    3.89543010   -8.41451500   -2.42609622     1.300
 number of segments per atom =         32
 number of   points per atom =         32
 atom (   nspa,  nppa )
 ----------------------
    1 (     17,     0 )       0
    2 (     14,     0 )       0
    3 (     11,     0 )       0
    4 (      9,     0 )       0
    5 (      1,     0 )       0
    6 (      2,     0 )       0
    7 (     14,     0 )       0
    8 (     15,     0 )       0
    9 (     13,     0 )       0
   10 (     12,     0 )       0
   11 (     13,     0 )       0
   12 (      9,     0 )       0
   13 (     14,     0 )       0
   14 (     13,     0 )       0
   15 (     15,     0 )       0
   16 (     13,     0 )       0
   17 (     14,     0 )       0
   18 (     13,     0 )       0
   19 (     13,     0 )       0
   20 (     16,     0 )       0
   21 (     13,     0 )       0
   22 (     12,     0 )       0
   23 (      8,     0 )       0
   24 (      9,     0 )       0
   25 (      5,     0 )       0
   26 (      9,     0 )       0
   27 (     18,     0 )       0
   28 (     14,     0 )       0
   29 (     10,     0 )       0
   30 (     15,     0 )       0
   31 (     13,     0 )       0
   32 (     14,     0 )       0
   33 (     16,     0 )       0
   34 (     14,     0 )       0
   35 (     14,     0 )       0
   36 (     15,     0 )       0
   37 (     14,     0 )       0
   38 (     14,     0 )       0
   39 (     12,     0 )       0
   40 (     13,     0 )       0
   41 (     15,     0 )       0
   42 (     15,     0 )       0
   43 (     15,     0 )       0
 number of -cosmo- surface points =      538
 molecular surface =    328.564 angstrom**2
 molecular volume  =    183.502 angstrom**3
 G(cav/disp)       =      2.503 kcal/mol
 ...... end of -cosmo- initialization ......


  Caching 1-el integrals 
   Time after variat. SCF:   1105.2
   Time prior to 1st pass:   1105.2


         Total DFT energy =    -1417.782331467915
      One electron energy =    -5165.222121801823
           Coulomb energy =     2274.686588399353
    Exchange-Corr. energy =     -148.186796348459
 Nuclear repulsion energy =     1619.964941294847

             COSMO energy =        0.975056988167

 Numeric. integr. density =      152.000003053912

     Total iterative time =   1154.2s


                                   COSMO solvation results
                                   -----------------------

                 gas phase energy =     -1417.773345132880
                 sol phase energy =     -1417.782331467915
 (electrostatic) solvation energy =         0.008986335035 (    5.64 kcal/mol)

      -----------------------------------
      Indirect Spin-Spin Coupling Tensors
      -----------------------------------


      Indirect spin-spin coupling not calculated for RHF
      wave functions: needs UHF wave function

          -----------------------------------------
          Chemical Shielding Tensors (GIAO, in ppm)
          -----------------------------------------

    0 giaofock schwarz done =      36.06%
    0 giaofock schwarz done =      39.52%
 
 solvent parameters
 solvname_short: chcl3   
 solvname_long:  chloroform                         
 dielec:        4.7113
 dielecinf:     2.0906

          ---------------
          -cosmo- solvent
          ---------------
 Cosmo: York-Karplus, doi: 10.1021/jp992097l
 dielectric constant -eps-     =   4.71
 screen = (eps-1)/(eps    )    =   0.78774
 surface charge correction     = lagrangian
 -lineq- algorithm             =   0
 -bem- low  level              =   2
 -bem- from -octahedral-
 gaussian surface charge width =   0.98000
 degree of switching           =   1.00000
 switching function tolerance  =   0.00010
 atomic radii = 
 --------------
    1 16.000  2.160
    2 15.000  2.106
    3  8.000  1.720
    4  8.000  1.720
    5  6.000  2.000
    6  6.000  2.000
    7  6.000  2.000
    8  6.000  2.000
    9  6.000  2.000
   10  6.000  2.000
   11  1.000  1.300
   12  1.000  1.300
   13  1.000  1.300
   14  1.000  1.300
   15  1.000  1.300
   16  1.000  1.300
   17  1.000  1.300
   18  1.000  1.300
   19  1.000  1.300
   20  1.000  1.300
   21  1.000  1.300
   22  1.000  1.300
   23  6.000  2.000
   24  6.000  2.000
   25  7.000  1.830
   26  6.000  2.000
   27  6.000  2.000
   28  6.000  2.000
   29  6.000  2.000
   30  1.000  1.300
   31  1.000  1.300
   32  1.000  1.300
   33  1.000  1.300
   34  1.000  1.300
   35  1.000  1.300
   36  1.000  1.300
   37  1.000  1.300
   38  1.000  1.300
   39  1.000  1.300
   40  1.000  1.300
   41  1.000  1.300
   42  1.000  1.300
   43  1.000  1.300

 solvent accessible surface
 --------------------------

 ---------- ATOMIC COORDINATES (A.U.) ------------ VDWR(ANG.) --
     1    2.32658918   -0.09978340    1.22897117     2.160
     2   -0.21076421    1.88485694   -1.21697009     2.106
     3    1.32896464    4.38750101   -2.15203789     1.720
     4   -1.93847454    3.45902573    0.81827147     1.720
     5    0.98152359    6.55134966   -0.49980611     2.000
     6   -1.75898659    6.17182502    0.48895984     2.000
     7    2.95512081    6.45132789    1.58369420     2.000
     8    1.33757305    8.89793911   -2.09560866     2.000
     9   -3.75844433    6.95332446   -1.42107661     2.000
    10   -2.26820218    7.39082346    3.02606689     2.000
    11    2.90709191    8.17754621    2.70786739     1.300
    12    2.67299206    4.85110423    2.85046524     1.300
    13    4.82321672    6.28723283    0.73136919     1.300
    14    0.15378780    8.85669127   -3.77702973     1.300
    15    0.87439856   10.58183816   -0.99824503     1.300
    16    3.30649062    9.04300898   -2.68546219     1.300
    17   -3.84724995    9.00303394   -1.60759210     1.300
    18   -3.39162129    6.14015334   -3.27988289     1.300
    19   -5.59504032    6.28416359   -0.77017115     1.300
    20   -1.99103214    9.43117777    2.90346227     1.300
    21   -4.22280367    7.04573102    3.57907780     1.300
    22   -1.03440267    6.64046442    4.49021083     1.300
    23    1.89046304   -3.22468548   -0.13179141     2.000
    24   -0.28026116   -4.65311059    1.08560225     2.000
    25   -0.53727475   -7.17995533    0.06576242     1.830
    26    1.50402755   -8.87059036    0.85423304     2.000
    27    3.02196285   -9.93325785   -1.33706828     2.000
    28   -3.59552900  -10.55391729   -1.04975281     2.000
    29   -3.03774353   -8.22427154    0.52127208     2.000
    30    1.58131906   -3.03582390   -2.16222559     1.300
    31    3.68894076   -4.19172504    0.14023193     1.300
    32   -2.02751264   -3.61864323    0.70683289     1.300
    33   -0.02269356   -4.64988201    3.15595813     1.300
    34   -3.30753337   -8.67495897    2.54227340     1.300
    35   -4.41707688   -6.76065194    0.05546622     1.300
    36   -3.41244332  -10.13690575   -3.06159526     1.300
    37   -5.52088756  -11.20001006   -0.68813355     1.300
    38   -2.32316193  -12.11288247   -0.59740534     1.300
    39    0.72174447  -10.42771922    1.97543556     1.300
    40    2.77592417   -7.85585603    2.13260785     1.300
    41    1.81810919  -11.01258571   -2.61613269     1.300
    42    4.51802794  -11.17937177   -0.64882653     1.300
    43    3.89543010   -8.41451500   -2.42609622     1.300
 number of segments per atom =         32
 number of   points per atom =         32
 atom (   nspa,  nppa )
 ----------------------
    1 (     17,     0 )       0
    2 (     14,     0 )       0
    3 (     11,     0 )       0
    4 (      9,     0 )       0
    5 (      1,     0 )       0
    6 (      2,     0 )       0
    7 (     14,     0 )       0
    8 (     15,     0 )       0
    9 (     13,     0 )       0
   10 (     12,     0 )       0
   11 (     13,     0 )       0
   12 (      9,     0 )       0
   13 (     14,     0 )       0
   14 (     13,     0 )       0
   15 (     15,     0 )       0
   16 (     13,     0 )       0
   17 (     14,     0 )       0
   18 (     13,     0 )       0
   19 (     13,     0 )       0
   20 (     16,     0 )       0
   21 (     13,     0 )       0
   22 (     12,     0 )       0
   23 (      8,     0 )       0
   24 (      9,     0 )       0
   25 (      5,     0 )       0
   26 (      9,     0 )       0
   27 (     18,     0 )       0
   28 (     14,     0 )       0
   29 (     10,     0 )       0
   30 (     15,     0 )       0
   31 (     13,     0 )       0
   32 (     14,     0 )       0
   33 (     16,     0 )       0
   34 (     14,     0 )       0
   35 (     14,     0 )       0
   36 (     15,     0 )       0
   37 (     14,     0 )       0
   38 (     14,     0 )       0
   39 (     12,     0 )       0
   40 (     13,     0 )       0
   41 (     15,     0 )       0
   42 (     15,     0 )       0
   43 (     15,     0 )       0
 number of -cosmo- surface points =      538
 molecular surface =    328.564 angstrom**2
 molecular volume  =    183.502 angstrom**3
 G(cav/disp)       =      2.503 kcal/mol
 ...... end of -cosmo- initialization ......


 SCF residual:   7.009345005617821E-005

 Wrote CPHF data to ./molecule.shieldcphf

 Calc. par tensor-> nonrel
      Atom:    1  S 
        Diamagnetic
   1052.6096     -2.2322      4.4592
     -2.2322   1065.4056     -0.1504
      4.4592     -0.1504   1052.2487

        Paramagnetic
   -536.1202    -93.5947     26.7846
    -93.5947   -676.1582   -154.5768
     26.7846   -154.5768   -581.8916

        Total Shielding Tensor
    516.4894    -95.8269     31.2438
    -95.8269    389.2474   -154.7272
     31.2438   -154.7272    470.3571

           isotropic =     458.6980
          anisotropy =     282.0672

          Principal Components and Axis System
                 1           2           3
              646.7428    472.9735    256.3777

      1         0.5627      0.7939      0.2305
      2        -0.5695      0.1702      0.8042
      3         0.5992     -0.5838      0.5479



      Atom:    2  P 
        Diamagnetic
    963.2971     -3.4395      0.2556
     -3.4395    972.2428     -2.1070
      0.2556     -2.1070    961.7374

        Paramagnetic
   -743.2306     20.3366     62.5701
     20.3366   -931.7505     -3.5486
     62.5701     -3.5486   -715.1080

        Total Shielding Tensor
    220.0665     16.8971     62.8257
     16.8971     40.4923     -5.6557
     62.8257     -5.6557    246.6294

           isotropic =     169.0627
          anisotropy =     192.9787

          Principal Components and Axis System
                 1           2           3
              297.7152    171.2582     38.2148

      1         0.6320      0.7666     -0.1132
      2         0.0245      0.1263      0.9917
      3         0.7746     -0.6295      0.0610



      Atom:    3  O 
        Diamagnetic
    376.4489     10.3760     -5.3385
     10.3760    414.7263      5.0029
     -5.3385      5.0029    378.7317

        Paramagnetic
   -167.4745    -15.3332    -35.2842
    -15.3332   -184.1221     24.9815
    -35.2842     24.9815   -218.3527

        Total Shielding Tensor
    208.9744     -4.9572    -40.6227
     -4.9572    230.6042     29.9844
    -40.6227     29.9844    160.3790

           isotropic =     199.9859
          anisotropy =      79.3789

          Principal Components and Axis System
                 1           2           3
              252.9051    215.5619    131.4906

      1        -0.5068      0.7421      0.4387
      2         0.7298      0.6402     -0.2400
      3         0.4590     -0.1985      0.8660



      Atom:    4  O 
        Diamagnetic
    379.8302    -10.1182    -11.5497
    -10.1182    409.9907     11.4403
    -11.5497     11.4403    378.3791

        Paramagnetic
   -220.1275     13.3034    -37.9906
     13.3034   -144.2293    -39.2013
    -37.9906    -39.2013   -193.4597

        Total Shielding Tensor
    159.7027      3.1851    -49.5403
      3.1851    265.7614    -27.7609
    -49.5403    -27.7609    184.9194

           isotropic =     203.4612
          anisotropy =     111.2462

          Principal Components and Axis System
                 1           2           3
              277.6253    213.0672    119.6910

      1         0.1797     -0.6115      0.7706
      2         0.9119      0.3974      0.1027
      3        -0.3691      0.6842      0.6290



      Atom:    5  C 
        Diamagnetic
    244.6206      2.6105     -0.3641
      2.6105    248.7791      0.3500
     -0.3641      0.3500    242.6536

        Paramagnetic
   -150.5473    -12.6129     -5.9023
    -12.6129   -123.9634     28.1322
     -5.9023     28.1322   -137.6089

        Total Shielding Tensor
     94.0734    -10.0024     -6.2664
    -10.0024    124.8157     28.4822
     -6.2664     28.4822    105.0447

           isotropic =     107.9779
          anisotropy =      59.5380

          Principal Components and Axis System
                 1           2           3
              147.6699     91.5505     84.7134

      1        -0.2147      0.9718     -0.0976
      2         0.7972      0.1167     -0.5924
      3         0.5643      0.2050      0.7997



      Atom:    6  C 
        Diamagnetic
    245.5722     -3.1378     -2.1295
     -3.1378    247.7067      0.9371
     -2.1295      0.9371    242.1797

        Paramagnetic
   -154.1775      9.6544     -3.7735
      9.6544   -100.7856     -8.9291
     -3.7735     -8.9291   -162.9603

        Total Shielding Tensor
     91.3946      6.5165     -5.9030
      6.5165    146.9211     -7.9920
     -5.9030     -7.9920     79.2195

           isotropic =     105.8451
          anisotropy =      64.3578

          Principal Components and Axis System
                 1           2           3
              148.7502     92.3316     76.4533

      1         0.1246      0.9329      0.3379
      2         0.9845     -0.1587      0.0752
      3        -0.1237     -0.3233      0.9382



      Atom:    7  C 
        Diamagnetic
    247.4195      2.2303      5.5671
      2.2303    245.0207      2.0229
      5.5671      2.0229    246.1235

        Paramagnetic
    -73.2550     -6.8083      5.5336
     -6.8083    -85.7096     -1.1382
      5.5336     -1.1382    -70.9690

        Total Shielding Tensor
    174.1645     -4.5780     11.1007
     -4.5780    159.3111      0.8847
     11.1007      0.8847    175.1545

           isotropic =     169.5434
          anisotropy =      24.7093

          Principal Components and Axis System
                 1           2           3
              186.0163    165.8036    156.8103

      1         0.7000      0.5816      0.4143
      2        -0.0966     -0.4978      0.8619
      3         0.7076     -0.6434     -0.2923



      Atom:    8  C 
        Diamagnetic
    242.5980      2.2701     -1.3419
      2.2701    251.6802     -4.9329
     -1.3419     -4.9329    243.8186

        Paramagnetic
    -83.3580      1.1226      5.3673
      1.1226    -71.3408    -11.1604
      5.3673    -11.1604    -73.9367

        Total Shielding Tensor
    159.2400      3.3927      4.0254
      3.3927    180.3394    -16.0934
      4.0254    -16.0934    169.8819

           isotropic =     169.8204
          anisotropy =      33.3243

          Principal Components and Axis System
                 1           2           3
              192.0366    163.9888    153.4359

      1         0.0118      0.7413     -0.6711
      2         0.8100      0.3864      0.4411
      3        -0.5863      0.5488      0.5959



      Atom:    9  C 
        Diamagnetic
    248.3543     -4.6521      4.2446
     -4.6521    244.8175     -2.8020
      4.2446     -2.8020    243.8042

        Paramagnetic
    -78.4221      1.6712     10.8418
      1.6712    -82.2598     -6.8017
     10.8418     -6.8017    -72.4739

        Total Shielding Tensor
    169.9322     -2.9809     15.0864
     -2.9809    162.5577     -9.6037
     15.0864     -9.6037    171.3303

           isotropic =     167.9401
          anisotropy =      31.4182

          Principal Components and Axis System
                 1           2           3
              188.8855    162.1469    152.7878

      1         0.6191      0.5945      0.5131
      2        -0.3300      0.7898     -0.5170
      3         0.7126     -0.1508     -0.6852



      Atom:   10  C 
        Diamagnetic
    243.0404     -2.1857     -3.0610
     -2.1857    245.9402      5.3086
     -3.0610      5.3086    249.1584

        Paramagnetic
    -81.7916     -3.8469      3.4397
     -3.8469    -82.7859      7.6643
      3.4397      7.6643    -63.7250

        Total Shielding Tensor
    161.2488     -6.0327      0.3787
     -6.0327    163.1543     12.9729
      0.3787     12.9729    185.4335

           isotropic =     169.9455
          anisotropy =      32.4128

          Principal Components and Axis System
                 1           2           3
              191.5541    165.0952    153.1873

      1        -0.0738      0.8121      0.5789
      2         0.4273     -0.4987      0.7541
      3         0.9011      0.3030     -0.3102



      Atom:   11  H 
        Diamagnetic
     26.1099      2.4575      3.2677
      2.4575     33.1393      8.0675
      3.2677      8.0675     30.1064

        Paramagnetic
      3.2054     -0.6377     -1.2297
     -0.6377     -2.0767     -3.6857
     -1.2297     -3.6857      1.1224

        Total Shielding Tensor
     29.3153      1.8198      2.0381
      1.8198     31.0626      4.3818
      2.0381      4.3818     31.2288

           isotropic =      30.5356
          anisotropy =       9.0324

          Principal Components and Axis System
                 1           2           3
               36.5572     28.2961     26.7534

      1         0.3527      0.9327      0.0747
      2         0.6520     -0.3023      0.6953
      3         0.6711     -0.1965     -0.7148



      Atom:   12  H 
        Diamagnetic
     24.5988      1.3632      3.8521
      1.3632     33.8135     -4.2174
      3.8521     -4.2174     30.5921

        Paramagnetic
      3.2098     -1.4008     -0.7686
     -1.4008     -1.7298      2.2766
     -0.7686      2.2766     -0.3837

        Total Shielding Tensor
     27.8086     -0.0376      3.0835
     -0.0376     32.0837     -1.9407
      3.0835     -1.9407     30.2084

           isotropic =      30.0336
          anisotropy =       5.7899

          Principal Components and Axis System
                 1           2           3
               33.8935     30.6908     25.5164

      1         0.3289      0.5175      0.7899
      2        -0.6938      0.6999     -0.1696
      3         0.6406      0.4923     -0.5893



      Atom:   13  H 
        Diamagnetic
     39.8517      1.0263     -0.8255
      1.0263     25.0007      0.3659
     -0.8255      0.3659     24.5129

        Paramagnetic
     -3.9253     -0.5927      0.7691
     -0.5927      3.6104     -0.4389
      0.7691     -0.4389      2.8239

        Total Shielding Tensor
     35.9264      0.4337     -0.0564
      0.4337     28.6110     -0.0730
     -0.0564     -0.0730     27.3368

           isotropic =      30.6248
          anisotropy =       7.9916

          Principal Components and Axis System
                 1           2           3
               35.9525     28.5893     27.3325

      1         0.9982     -0.0593      0.0037
      2         0.0590      0.9967      0.0557
      3        -0.0070     -0.0554      0.9984



      Atom:   14  H 
        Diamagnetic
     27.1184      0.4311      4.7661
      0.4311     27.4461     -5.2956
      4.7661     -5.2956     34.3089

        Paramagnetic
      2.3553      0.0010     -2.8327
      0.0010      1.2696      1.3666
     -2.8327      1.3666     -1.1650

        Total Shielding Tensor
     29.4737      0.4321      1.9334
      0.4321     28.7157     -3.9290
      1.9334     -3.9290     33.1440

           isotropic =      30.4445
          anisotropy =       8.0095

          Principal Components and Axis System
                 1           2           3
               35.7841     29.6685     25.8807

      1         0.2307      0.8996     -0.3707
      2        -0.4619      0.4366      0.7720
      3         0.8564     -0.0069      0.5163



      Atom:   15  H 
        Diamagnetic
     23.4121     -0.7631     -1.9067
     -0.7631     39.6214      2.9234
     -1.9067      2.9234     25.6697

        Paramagnetic
      3.7560      0.9257      1.0152
      0.9257     -3.0297     -2.3121
      1.0152     -2.3121      1.9551

        Total Shielding Tensor
     27.1681      0.1625     -0.8915
      0.1625     36.5918      0.6113
     -0.8915      0.6113     27.6248

           isotropic =      30.4616
          anisotropy =       9.2592

          Principal Components and Axis System
                 1           2           3
               36.6344     28.2994     26.4510

      1         0.0109     -0.6224      0.7827
      2         0.9977     -0.0454     -0.0499
      3         0.0666      0.7814      0.6204



      Atom:   16  H 
        Diamagnetic
     35.6530      4.5353     -5.6677
      4.5353     27.9590     -4.1223
     -5.6677     -4.1223     25.7286

        Paramagnetic
     -2.9871     -1.8978      2.8670
     -1.8978      1.3882      1.3813
      2.8670      1.3813      2.9397

        Total Shielding Tensor
     32.6659      2.6375     -2.8007
      2.6375     29.3472     -2.7410
     -2.8007     -2.7410     28.6682

           isotropic =      30.2271
          anisotropy =       8.7822

          Principal Components and Axis System
                 1           2           3
               36.0819     28.3862     26.2133

      1         0.7473     -0.6581      0.0918
      2         0.4798      0.6300      0.6107
      3        -0.4597     -0.4124      0.7865



      Atom:   17  H 
        Diamagnetic
     27.1083     -4.5486      2.0465
     -4.5486     37.9127     -3.8884
      2.0465     -3.8884     24.1423

        Paramagnetic
      3.1089      1.6039     -0.7370
      1.6039     -3.7497      0.7687
     -0.7370      0.7687      3.5209

        Total Shielding Tensor
     30.2172     -2.9447      1.3094
     -2.9447     34.1631     -3.1197
      1.3094     -3.1197     27.6631

           isotropic =      30.6811
          anisotropy =       9.4142

          Principal Components and Axis System
                 1           2           3
               36.9572     28.6830     26.4031

      1        -0.4312      0.9012     -0.0434
      2         0.8353      0.4169      0.3584
      3        -0.3411     -0.1183      0.9325



      Atom:   18  H 
        Diamagnetic
     26.9740     -3.1144      2.7933
     -3.1144     25.5452      1.9686
      2.7933      1.9686     36.1380

        Paramagnetic
      3.0544      1.9241      0.1338
      1.9241      1.7095     -1.5020
      0.1338     -1.5020     -2.5500

[...]

        Total Shielding Tensor
    146.1244     14.4083     -3.9535
     14.4083    179.9081      8.2127
     -3.9535      8.2127    151.2172

           isotropic =     159.0832
          anisotropy =      40.9633

          Principal Components and Axis System
                 1           2           3
              186.3921    153.3717    137.4859

      1         0.3154     -0.4874      0.8142
      2         0.9313     -0.0056     -0.3641
      3         0.1820      0.8732      0.4522



      Atom:   24  C 
        Diamagnetic
    243.5444      6.9746     -1.7787
      6.9746    255.0540      0.6721
     -1.7787      0.6721    237.7809

        Paramagnetic
   -135.2383      4.8720      3.3390
      4.8720    -80.0988     18.3079
      3.3390     18.3079   -139.6039

        Total Shielding Tensor
    108.3061     11.8467      1.5603
     11.8467    174.9552     18.9799
      1.5603     18.9799     98.1770

           isotropic =     127.1461
          anisotropy =      81.2723

          Principal Components and Axis System
                 1           2           3
              181.3276    106.4756     93.6350

      1         0.1608      0.9829      0.0900
      2         0.9616     -0.1354     -0.2388
      3         0.2225     -0.1249      0.9669



      Atom:   25  N 
        Diamagnetic
    320.8116      1.0248      4.1748
      1.0248    324.7912      3.1065
      4.1748      3.1065    284.2291

        Paramagnetic
   -115.5773      0.3353     -4.6798
      0.3353   -109.6955      2.3921
     -4.6798      2.3921    -99.1755

        Total Shielding Tensor
    205.2343      1.3600     -0.5050
      1.3600    215.0957      5.4986
     -0.5050      5.4986    185.0537

           isotropic =     201.7945
          anisotropy =      21.6280

          Principal Components and Axis System
                 1           2           3
              216.2132    205.1171    184.0534

      1         0.1134      0.9929      0.0347
      2         0.9787     -0.1056     -0.1758
      3         0.1709     -0.0539      0.9838



      Atom:   26  C 
        Diamagnetic
    248.1039     -5.4650     -1.3962
     -5.4650    247.5883      1.2321
     -1.3962      1.2321    241.8212

        Paramagnetic
    -98.0218    -25.3200     11.5439
    -25.3200   -107.9866    -10.7165
     11.5439    -10.7165   -102.4265

        Total Shielding Tensor
    150.0821    -30.7851     10.1477
    -30.7851    139.6017     -9.4843
     10.1477     -9.4843    139.3948

           isotropic =     143.0262
          anisotropy =      56.5505

          Principal Components and Axis System
                 1           2           3
              180.7265    134.7597    113.5924

      1         0.7223     -0.2634      0.6395
      2        -0.6141      0.1812      0.7682
      3         0.3182      0.9475      0.0309



      Atom:   27  C 
        Diamagnetic
    245.4233     -3.8677     -4.2307
     -3.8677    244.2330      3.2437
     -4.2307      3.2437    243.8706

        Paramagnetic
    -69.0955    -10.8585     -6.0200
    -10.8585    -74.2932      3.3886
     -6.0200      3.3886    -71.2952

        Total Shielding Tensor
    176.3278    -14.7263    -10.2507
    -14.7263    169.9398      6.6323
    -10.2507      6.6323    172.5754

           isotropic =     172.9477
          anisotropy =      32.8363

          Principal Components and Axis System
                 1           2           3
              194.8385    166.1042    157.9003

      1         0.6934      0.2851      0.6617
      2        -0.5378     -0.4063      0.7387
      3        -0.4795      0.8681      0.1284



      Atom:   28  C 
        Diamagnetic
    245.1321      3.8078      1.6263
      3.8078    248.0371      3.8630
      1.6263      3.8630    243.0097

        Paramagnetic
    -71.3185      6.3278     -2.0206
      6.3278    -67.5148      6.3985
     -2.0206      6.3985    -65.9345

        Total Shielding Tensor
    173.8136     10.1356     -0.3943
     10.1356    180.5223     10.2616
     -0.3943     10.2616    177.0752

           isotropic =     177.1370
          anisotropy =      23.1049

          Principal Components and Axis System
                 1           2           3
              192.5403    175.8772    162.9936

      1         0.4045     -0.6816      0.6098
      2         0.7668     -0.1106     -0.6323
      3         0.4985      0.7233      0.4779



      Atom:   29  C 
        Diamagnetic
    247.7119      6.1174      0.4374
      6.1174    248.4605      2.9123
      0.4374      2.9123    239.7063

        Paramagnetic
    -77.4881      9.2089     -6.4440
      9.2089   -118.4798     -4.9168
     -6.4440     -4.9168   -127.2234

        Total Shielding Tensor
    170.2238     15.3263     -6.0067
     15.3263    129.9807     -2.0045
     -6.0067     -2.0045    112.4828

           isotropic =     137.5625
          anisotropy =      57.6968

          Principal Components and Axis System
                 1           2           3
              176.0270    124.8086    111.8518

      1         0.9428     -0.3196      0.0945
      2         0.3181      0.9476      0.0302
      3        -0.0992      0.0016      0.9951



      Atom:   30  H 
        Diamagnetic
     21.8431      0.8114      0.2430
      0.8114     32.4254      0.2289
      0.2430      0.2289     35.9288

        Paramagnetic
      2.1949      0.0018     -1.4166
      0.0018     -1.0440      0.5246
     -1.4166      0.5246     -3.8561

        Total Shielding Tensor
     24.0380      0.8131     -1.1736
      0.8131     31.3814      0.7536
     -1.1736      0.7536     32.0727

           isotropic =      29.1640
          anisotropy =       5.1480

          Principal Components and Axis System
                 1           2           3
               32.5961     31.1357     23.7604

      1        -0.0725      0.1770      0.9815
      2         0.4903      0.8633     -0.1195
      3         0.8685     -0.4726      0.1494



      Atom:   31  H 
        Diamagnetic
     34.6752     -4.4081      0.2027
     -4.4081     35.2241      0.3290
      0.2027      0.3290     20.7022

        Paramagnetic
     -3.8361      2.4782     -0.8997
      2.4782     -1.2152      0.7333
     -0.8997      0.7333      1.2771

        Total Shielding Tensor
     30.8391     -1.9300     -0.6970
     -1.9300     34.0089      1.0623
     -0.6970      1.0623     21.9793

           isotropic =      28.9424
          anisotropy =       9.1503

          Principal Components and Axis System
                 1           2           3
               35.0426     29.9304     21.8543

      1        -0.4284      0.9015      0.0606
      2         0.8985      0.4322     -0.0774
      3         0.0959     -0.0213      0.9952



      Atom:   32  H 
        Diamagnetic
     34.8688     -1.9384      0.5964
     -1.9384     36.2900     -0.7861
      0.5964     -0.7861     19.8770

        Paramagnetic
     -5.1122      1.8683     -1.1549
      1.8683     -1.1931      0.7814
     -1.1549      0.7814      3.7664

        Total Shielding Tensor
     29.7566     -0.0702     -0.5586
     -0.0702     35.0970     -0.0047
     -0.5586     -0.0047     23.6435

           isotropic =      29.4990
          anisotropy =       8.3983

          Principal Components and Axis System
                 1           2           3
               35.0979     29.8063     23.5928

      1        -0.0132      0.9958      0.0903
      2         0.9999      0.0131      0.0010
      3         0.0002     -0.0903      0.9959



      Atom:   33  H 
        Diamagnetic
     22.4210      2.4114      0.0484
      2.4114     29.5935      0.5507
      0.0484      0.5507     36.5257

        Paramagnetic
      3.0867     -0.8399     -1.2349
     -0.8399      2.4197      0.8881
     -1.2349      0.8881     -6.0692

        Total Shielding Tensor
     25.5077      1.5715     -1.1865
      1.5715     32.0132      1.4388
     -1.1865      1.4388     30.4565

           isotropic =      29.3258
          anisotropy =       5.4453

          Principal Components and Axis System
                 1           2           3
               32.9560     30.2679     24.7534

      1         0.1140     -0.3427      0.9325
      2         0.8835     -0.3943     -0.2529
      3         0.4544      0.8527      0.2578



      Atom:   34  H 
        Diamagnetic
     26.9385      3.0436     -4.1663
      3.0436     26.0482     -2.7529
     -4.1663     -2.7529     36.2691

        Paramagnetic
      2.1927     -0.2846      0.7276
     -0.2846      1.8198      2.9913
      0.7276      2.9913     -5.4771

        Total Shielding Tensor
     29.1312      2.7590     -3.4387
      2.7590     27.8680      0.2385
     -3.4387      0.2385     30.7920

           isotropic =      29.2637
          anisotropy =       7.0004

          Principal Components and Axis System
                 1           2           3
               33.9307     29.2343     24.6262

      1         0.6589      0.3178     -0.6818
      2         0.2723      0.7442      0.6100
      3        -0.7012      0.5876     -0.4038



      Atom:   35  H 
        Diamagnetic
     35.3599     -3.8532      2.1261
     -3.8532     34.1559     -0.4319
      2.1261     -0.4319     22.4048

        Paramagnetic
     -2.1170      2.9563     -1.1246
      2.9563     -3.5234      1.2948
     -1.1246      1.2948      1.4985

        Total Shielding Tensor
     33.2429     -0.8969      1.0014
     -0.8969     30.6325      0.8629
      1.0014      0.8629     23.9033

           isotropic =      29.2596
          anisotropy =       6.4720

          Principal Components and Axis System
                 1           2           3
               33.5742     30.5388     23.6656

      1         0.9598      0.2559     -0.1157
      2        -0.2706      0.9529     -0.1367
      3         0.0752      0.1625      0.9838



      Atom:   36  H 
        Diamagnetic
     25.4077      1.9986      1.1061
      1.9986     26.1473      0.9650
      1.1061      0.9650     37.9782

        Paramagnetic
      3.1024     -0.9784      0.3230
     -0.9784      2.4007      0.0851
      0.3230      0.0851     -2.9586

        Total Shielding Tensor
     28.5102      1.0202      1.4291
      1.0202     28.5480      1.0501
      1.4291      1.0501     35.0196

           isotropic =      30.6926
          anisotropy =       7.2728

          Principal Components and Axis System
                 1           2           3
               35.5411     29.0414     27.4953

      1         0.2206      0.6350      0.7403
      2         0.1762      0.7206     -0.6706
      3         0.9593     -0.2784     -0.0470



      Atom:   37  H 
        Diamagnetic
     37.2656      6.8785     -0.7710
      6.8785     28.5667      0.6436
     -0.7710      0.6436     24.0372

        Paramagnetic
     -2.3390     -2.1661      0.5050
     -2.1661      1.7032     -0.0467
      0.5050     -0.0467      2.8742

        Total Shielding Tensor
     34.9266      4.7124     -0.2660
      4.7124     30.2699      0.5969
     -0.2660      0.5969     26.9114

           isotropic =      30.7026
          anisotropy =      10.7289

          Principal Components and Axis System
                 1           2           3
               37.8552     27.8086     26.4440

      1         0.8491     -0.4325      0.3032
      2         0.5282      0.6863     -0.5001
      3         0.0082      0.5848      0.8112



      Atom:   38  H 
        Diamagnetic
     29.8320     -3.2863      1.9675
     -3.2863     36.2301     -0.0897
      1.9675     -0.0897     23.0479

        Paramagnetic
      0.5282      2.5912     -0.9581
      2.5912     -1.4966      0.4428
     -0.9581      0.4428      3.5136

        Total Shielding Tensor
     30.3602     -0.6951      1.0094
     -0.6951     34.7334      0.3531
      1.0094      0.3531     26.5616

           isotropic =      30.5517
          anisotropy =       6.4413

          Principal Components and Axis System
                 1           2           3
               34.8459     30.5304     26.2788

      1        -0.1478      0.9571     -0.2494
      2         0.9887      0.1368     -0.0609
      3         0.0241      0.2556      0.9665



      Atom:   39  H 
        Diamagnetic
     28.4553      1.0393     -1.8041
      1.0393     33.6341     -7.0147
     -1.8041     -7.0147     28.3254

        Paramagnetic
     -0.2677     -2.6769      1.8236
     -2.6769     -2.3049      3.8327
      1.8236      3.8327      0.3729

        Total Shielding Tensor
     28.1876     -1.6375      0.0195
     -1.6375     31.3292     -3.1820
      0.0195     -3.1820     28.6982

           isotropic =      29.4050
          anisotropy =       6.5912

          Principal Components and Axis System
                 1           2           3
               33.7992     28.2885     26.1273

      1        -0.2419      0.8635      0.4426
      2         0.8228     -0.0592      0.5652
      3        -0.5142     -0.5009      0.6962



      Atom:   40  H 
        Diamagnetic
     30.7591      0.5205      6.4044
      0.5205     30.9642      3.1484
      6.4044      3.1484     29.3081

        Paramagnetic
     -0.5832     -2.3105     -3.3908
     -2.3105     -1.5978     -2.4778
     -3.3908     -2.4778     -0.5768

        Total Shielding Tensor
     30.1759     -1.7899      3.0136
     -1.7899     29.3665      0.6706
      3.0136      0.6706     28.7314

           isotropic =      29.4246
          anisotropy =       5.1675

          Principal Components and Axis System
                 1           2           3
               32.8696     29.7897     25.6145

      1         0.7929     -0.0114     -0.6093
      2        -0.3040      0.8591     -0.4118
      3         0.5281      0.5117      0.6777



      Atom:   41  H 
        Diamagnetic
     29.3293      2.0297      2.0797
      2.0297     29.4777      7.2008
      2.0797      7.2008     30.2614

        Paramagnetic
      1.2447     -1.1637     -1.9511
     -1.1637      1.2652     -2.9001
     -1.9511     -2.9001      0.5450

        Total Shielding Tensor
     30.5740      0.8660      0.1286
      0.8660     30.7428      4.3007
      0.1286      4.3007     30.8064

           isotropic =      30.7077
          anisotropy =       6.7128

          Principal Components and Axis System
                 1           2           3
               35.1829     30.5334     26.4069

      1         0.1515      0.9803     -0.1265
      2         0.7028     -0.0168      0.7112
      3         0.6951     -0.1966     -0.6915



      Atom:   42  H 
        Diamagnetic
     33.6815     -8.2670      1.2109
     -8.2670     31.0725     -1.0200
      1.2109     -1.0200     25.0466

        Paramagnetic
     -0.2812      2.6764     -1.2071
      2.6764      0.5820      1.0019
     -1.2071      1.0019      2.0932

        Total Shielding Tensor
     33.4004     -5.5906      0.0038
     -5.5906     31.6545     -0.0180
      0.0038     -0.0180     27.1398

           isotropic =      30.7315
          anisotropy =      11.1814

          Principal Components and Axis System
                 1           2           3
               38.1858     27.1402     26.8686

      1         0.7597     -0.0279      0.6497
      2        -0.6503     -0.0305      0.7591
      3         0.0013      0.9991      0.0413



      Atom:   43  H 
        Diamagnetic
     28.6920      2.2894     -6.3750
      2.2894     31.8551     -3.0255
     -6.3750     -3.0255     28.8687

        Paramagnetic
      1.6071     -1.2738      2.3834
     -1.2738     -0.1226      2.2673
      2.3834      2.2673      1.2176

        Total Shielding Tensor
     30.2991      1.0155     -3.9916
      1.0155     31.7325     -0.7581
     -3.9916     -0.7581     30.0863

           isotropic =      30.7060
          anisotropy =       6.0143

          Principal Components and Axis System
                 1           2           3
               34.7155     31.2078     26.1946

      1         0.6654     -0.2572      0.7008
      2         0.3885      0.9209     -0.0309
      3        -0.6374      0.2928      0.7127



 
 
                                NWChem Input Module
                                -------------------
 
 
 
 
                                     CITATION
                                     --------
                Please cite the following reference when publishing
                           results obtained with NWChem:
 
          E. Apr, E. J. Bylaska, W. A. de Jong, N. Govind, K. Kowalski,
       T. P. Straatsma, M. Valiev, H. J. J. van Dam, Y. Alexeev, J. Anchell,
       V. Anisimov, F. W. Aquino, R. Atta-Fynn, J. Autschbach, N. P. Bauman,
     J. C. Becca, D. E. Bernholdt, K. Bhaskaran-Nair, S. Bogatko, P. Borowski,
        J. Boschen, J. Brabec, A. Bruner, E. Caut, Y. Chen, G. N. Chuev,
      C. J. Cramer, J. Daily, M. J. O. Deegan, T. H. Dunning Jr., M. Dupuis,
   K. G. Dyall, G. I. Fann, S. A. Fischer, A. Fonari, H. Frchtl, L. Gagliardi,
      J. Garza, N. Gawande, S. Ghosh, K. Glaesemann, A. W. Gtz, J. Hammond,
       V. Helms, E. D. Hermes, K. Hirao, S. Hirata, M. Jacquelin, L. Jensen,
   B. G. Johnson, H. Jnsson, R. A. Kendall, M. Klemm, R. Kobayashi, V. Konkov,
      S. Krishnamoorthy, M. Krishnan, Z. Lin, R. D. Lins, R. J. Littlefield,
      A. J. Logsdail, K. Lopata, W. Ma, A. V. Marenich, J. Martin del Campo,
   D. Mejia-Rodriguez, J. E. Moore, J. M. Mullin, T. Nakajima, D. R. Nascimento,
    J. A. Nichols, P. J. Nichols, J. Nieplocha, A. Otero-de-la-Roza, B. Palmer,
    A. Panyala, T. Pirojsirikul, B. Peng, R. Peverati, J. Pittner, L. Pollack,
   R. M. Richard, P. Sadayappan, G. C. Schatz, W. A. Shelton, D. W. Silverstein,
   D. M. A. Smith, T. A. Soares, D. Song, M. Swart, H. L. Taylor, G. S. Thomas,
            V. Tipparaju, D. G. Truhlar, K. Tsemekhman, T. Van Voorhis,
     . Vzquez-Mayagoitia, P. Verma, O. Villa, A. Vishnu, K. D. Vogiatzis,
        D. Wang, J. H. Weare, M. J. Williamson, T. L. Windus, K. Woliski,
        A. T. Wong, Q. Wu, C. Yang, Q. Yu, M. Zacharias, Z. Zhang, Y. Zhao,
                                and R. J. Harrison
                        "NWChem: Past, present, and future
                         J. Chem. Phys. 152, 184102 (2020)
                               doi:10.1063/5.0004997
 
                                      AUTHORS
                                      -------
     E. Apra, E. J. Bylaska, N. Govind, K. Kowalski, M. Valiev, W. A. de Jong,
      T. P. Straatsma, H. J. J. van Dam, D. Wang, T. L. Windus, N. P. Bauman,
       A. Panyala, J. Hammond, J. Autschbach, K. Bhaskaran-Nair, J. Brabec,
    K. Lopata, S. A. Fischer, S. Krishnamoorthy, M. Jacquelin, W. Ma, M. Klemm,
       O. Villa, Y. Chen, V. Anisimov, F. Aquino, S. Hirata, M. T. Hackler,
           Eric Hermes, L. Jensen, J. E. Moore, J. C. Becca, V. Konjkov,
            D. Mejia-Rodriguez, T. Risthaus, M. Malagoli, A. Marenich,
   A. Otero-de-la-Roza, J. Mullin, P. Nichols, R. Peverati, J. Pittner, Y. Zhao,
        P.-D. Fan, A. Fonari, M. J. Williamson, R. J. Harrison, J. R. Rehr,
      M. Dupuis, D. Silverstein, D. M. A. Smith, J. Nieplocha, V. Tipparaju,
      M. Krishnan, B. E. Van Kuiken, A. Vazquez-Mayagoitia, M. Swart, Q. Wu,
   T. Van Voorhis, A. A. Auer, M. Nooijen, L. D. Crosby, E. Brown, G. Cisneros,
     G. I. Fann, H. Fruchtl, J. Garza, K. Hirao, R. A. Kendall, J. A. Nichols,
       K. Tsemekhman, K. Wolinski, J. Anchell, D. E. Bernholdt, P. Borowski,
       T. Clark, D. Clerc, H. Dachsel, M. J. O. Deegan, K. Dyall, D. Elwood,
      E. Glendening, M. Gutowski, A. C. Hess, J. Jaffe, B. G. Johnson, J. Ju,
        R. Kobayashi, R. Kutteh, Z. Lin, R. Littlefield, X. Long, B. Meng,
      T. Nakajima, S. Niu, L. Pollack, M. Rosing, K. Glaesemann, G. Sandrone,
      M. Stave, H. Taylor, G. Thomas, J. H. van Lenthe, A. T. Wong, Z. Zhang.

 Total times  cpu:     5630.9s     wall:     5642.3s
