

 Parallel Execution: Process Information
 ==============================================================================
 Rank   Node Name                              NodeID   MyNodeRank  NodeMaster
    0   lxir132                                   0          0          0
    1   lxir132                                   0          1         -1
    2   lxir132                                   0          2         -1
    3   lxir132                                   0          3         -1
 ==============================================================================


May use up to 30636MB of RAM as shared memory on node 0

 *******************************************************************************
 *                                                                             *
 *  --------------------------------                                           *
 *   Amsterdam Modeling Suite (AMS)              2023.102                      *
 *  --------------------------------                                           *
 *                                               r113752 2023-07-12            *
 *                                                                             *
 *                                                                             *
 *                              =================                              *
 *                              |               |                              *
 *                              |     A M S     |                              *
 *                              |               |                              *
 *                              =================                              *
 *                                                                             *
 *                                                                             *
 *   Online information and documentation:  https://www.scm.com/support/       *
 *   E-mail:  support@scm.com   info@scm.com                                   *
 *                                                                             *
 *   Scientific publications using AMS results must be properly referenced     *
 *   See the User Manuals (or the web site) for recommended citations          *
 *   The terms and conditions of the End User License Agreement apply to       *
 *   the use of AMS, https://www.scm.com/license-terms/                        *
 *                                                                             *
 **********************  x86_64_linux_intel / intelmpi  ************************
 
 Licensed to: Dr. Valeria Pershina / GSI Helmholtzzentrum f?r Schwerionenforschung GmbH / Darmstadt / Germany 2023-05-04 13:38:37
 SCM User ID: u15059
  
 AMS 2023.102  RunTime: Aug22-2023 21:17:42  ShM Nodes: 1  Procs: 4

 AMS jobname: ams
 AMS jobid  : 1252091909

 Start   directory: /u/milias/Work/qch/projects/open-collection/theoretical_chemistry/software/ams/runs/band/felix/Og/hcp/phonons/tmp.milias.10235.0.noindex/
 Results directory: /u/milias/Work/qch/projects/open-collection/theoretical_chemistry/software/ams/runs/band/felix/Og/hcp/phonons/Og2.hcp_geomlatticeopt-phonons_sozora-coll-gnuc_pbesol_tzp.results/
 Scratch directory: /data.local1/milias/scratch/amstmp_ams_kid0.1252091909/


 Communication costs MPI_COMM_WORLD:      0.295 usec per message,   0.0046 usec per 8-byte item
 Communication costs for intra-node:      0.285 usec per message,   0.0045 usec per 8-byte item

 RNG seed: -1540063508 1580877128 316711816 1888660117 -1483668658 1533465433 395883271 749919943

       ***************************
       *  GEOMETRY OPTIMIZATION  *
       ***************************

Optimization Method                    Quasi Newton
Optimization Coordinates               Delocalized Coordinates
Optimize lattice                       T
 
 ------------------------------------------------------
 Convergence criteria (Hartree,Angstrom)
 ------------------------------------------------------
 Maximum gradient               0.001000000000
 Maximum rms gradient           0.000666666667
 Maximum step allowed           0.010000000000
 Maximum rms step allowed       0.006666666667
 Maximum energy change allowe   0.000020000000
 Maximum stress energy allowe   0.000500000000
 
Initial model Hessian                  Automatic Hessian
 
------------------------------------
Quasi-Newton Optimizer Parameters
------------------------------------
Hessian Update Method                  BFGS
Maximum number of steps                  250
First GDIIS cycle                          0
Maximum GDIIS vectors                      0
Trust radius (bohr)                        0.200000
Trust radius varies                        T
Constraints converged at all steps         T
Use projector                              T
 
 Rigid motions settings for: old optimizer
 Atomic rotations (x,y,z):     F F F
 Atomic translations (x,y,z):  T T T
 Tolerance:                   1.000000000000000E-006
 
--------
Geometry
--------
Formula: Og2
Atoms
  Index Symbol   x (angstrom)   y (angstrom)   z (angstrom)
      1     Og     0.00000000     0.00000000     0.00000000
      2     Og     2.00402408    -1.15702384    -3.84134682
 
Lattice vectors (angstrom)
      1     4.00804815     0.00000000     0.00000000
      2    -2.00402408     3.47107152     0.00000000
      3     0.00000000     0.00000000     7.68269365
 
Unit cell volume (angstrom^3)       106.88334
 
Total System Charge             0.00000
 



                     *************************************************************************
                     *  BAND 2023.102  RunTime: Aug22-2023 21:17:43  ShM Nodes: 1  Procs: 4  *
                     *************************************************************************
  

-----------------
Band Engine Input
-----------------

Basis
Type TZP
Core None
End
Dependency
AllowBasisDependency No
End
NuclearModel Gaussian
Relativity
Level Spin-Orbit
End
SCF
Method DIIS
End
XC
SpinOrbitMagnetization CollinearZ
GGA PBEsol
End
RIHartreeFock
Quality Normal
FitSetQuality Normal
End

Number of symmetry operators: 24
 Using automatic Hessian for delocalized coordinates.
 Using the following basis set files:
 
 Og             : /u/milias/Work/qch/software/ams/pc64_linux.intelmpi/ams2023.102/atomicdata/Band/TZP/Og
 Needs range separation F F
 Range separation string: 



 =====================
 C O N F I N E M E N T
 =====================
  
 Basis functions confinement radius        10.000
 Width                                      1.000



 ===============================
 M O D E L   P A R A M E T E R S
 ===============================
  
 DENSITY FUNCTIONAL POTENTIAL (scf)
    LDA:                               PW92                                    == Not Default ==
    Gradient Corrections:              PBEsolx PBEsolc                         == Not Default ==
 DENSITY FUNCTIONAL ENERGY (post-scf)
    Gradient Corrections:              Becke88 Perdew86 PW91x PW91c EV93x PW...== Not Default ==

 SPIN  (restricted / unrestr.)
    Molecule:                          Collinear (Z)

 OTHER ASPECTS
    Relativistic Corrections:          Spin-Orbit (ZORA,APA)                   == Not Default ==

    Nuclear Charge Density Model:      Gaussian Charge Distributions            *** SPECIAL ***



 ========================
 S. C. F.   O P T I O N S
 ========================
  

 * DIIS settings info for DIRAC   *
    Cond              0.1E+07
    CLarge          20.00
    CHuge           50.00
    DiMix            1.00
    IopPly              1
    NCyDmp              5
    IPrint              0
    Adaptable           F
    Method         diis                
    Dimix Decay fac  1.00

 * DIIS settings info for SCF     *
    Cond              0.1E+07
    CLarge          20.00
    CHuge           20.00
    DiMix            0.20
    IopPly              1
    NCyDmp              1
    IPrint              0
    Adaptable           T
    Method         DIIS                
    Dimix Decay fac  1.00
 growth factor   1.10000000000000     
 shrink factor  0.909090909100000     

    Mix            0.0750
    Degenerate          F
    Edegen          1.0E-04
    SCFRTX           9.90
    Convrg          1.4E-06
    Ncyclx            300
 getinp: use Shared Memory T




                             **  R A D I A L   F U N C T I O N S  **




                             ---------------------
                                   T Y P E   1
                             ---------------------

 RADIAL POINTS                                         3000




 ............................ D I R A C ................................

 NUCLEAR CHARGE                               118.0000               **>  Og  <**
 (POINT NUCLEUS)
 VALENCE CHARGE                               118.0000
 NET CHARGE                                     0.0000

 VALENCE ORBITALS INCLUDED IN THE CRYSTAL BASIS
 Nuclear radius (bohr):    1.16E-04
 Radial grid       nr of points               3000
                   range                      0.10E-05     0.10E+03
 Radius of nucleus  1.158E-04
  
  ** SCF-FUNCTIONAL INFO **
    ZORA
    DOUBLE GROUP
  
 Self consistent error   0.18E-08


  Orbital    Q         E(a.u.)     E(eV)           <R>
 -------------------------------------------------------------------
  1S 1/2     2.00 -10627.894910    -289199.7351   0.007
  2S 1/2     2.00  -1804.479357     -49102.3817   0.035
  2P 1/2     2.00  -1771.985469     -48218.1780   0.027
  2P 3/2     4.00  -1175.252814     -31980.2562   0.041
  3S 1/2     2.00   -470.940008     -12814.9296   0.097
  3P 1/2     2.00   -452.477130     -12312.5292   0.089
  3P 3/2     4.00   -315.998084      -8598.7454   0.114
  3D 3/2     4.00   -284.968418      -7754.3852   0.097
  3D 5/2     6.00   -263.462188      -7169.1709   0.103
  4S 1/2     2.00   -136.847449      -3723.8086   0.208
  4P 1/2     2.00   -127.353491      -3465.4648   0.203
  4P 3/2     4.00    -88.569996      -2410.1122   0.249
  4D 3/2     4.00    -73.415045      -1997.7250   0.240
  4D 5/2     6.00    -67.563712      -1838.5021   0.252
  5S 1/2     2.00    -37.617104      -1023.6135   0.408
  5P 1/2     2.00    -33.192614       -903.2170   0.412
  5P 3/2     4.00    -21.723692       -591.1317   0.500
  4F 5/2     6.00    -47.764135      -1299.7282   0.231
  4F 7/2     8.00    -46.013092      -1252.0799   0.236
  5D 3/2     4.00    -15.185642       -413.2223   0.522
  5D 5/2     6.00    -13.632938       -370.9711   0.547
  6S 1/2     2.00     -8.019907       -218.2328   0.807
  6P 1/2     2.00     -6.283790       -170.9906   0.846
  6P 3/2     4.00     -3.551157        -96.6319   1.056
  5F 5/2     6.00     -5.783632       -157.3806   0.606
  5F 7/2     8.00     -5.422781       -147.5614   0.620
  6D 3/2     4.00     -1.441727        -39.2314   1.262
  6D 5/2     6.00     -1.185670        -32.2637   1.344
  7S 1/2     2.00     -0.991973        -26.9930   1.810
  7P 1/2     2.00     -0.538258        -14.6468   2.092
  7P 3/2     4.00     -0.203249         -5.5307   2.966



 NR. OF RADIAL VALENCE ORBITALS                          71
 NR. OF RADIAL CORE ORBITALS                              0
 NR. OF RADIAL FIT FUNCTIONS                              0



 ======================================================
 R A N G E S    F O R    A T O M I C    O R B I T A L S
 ======================================================
  
   --------------------------------------------------------------------------------
                            valence            core valence kinetic    core kinetic
   --------------------------------------------------------------------------------

             Cutoff       1.000E-06       1.000E-06       1.000E-06       1.000E-06
   --------------------------------------------------------------------------------
 
   --------------------------------------------------------------------------------
               Type         valence            core valence kinetic    core kinetic
   --------------------------------------------------------------------------------
                 Og           15.55            0.00           15.84            0.00
   --------------------------------------------------------------------------------
 



 ====================
 R U N    C O N F I G
 ====================
  
 
 Use Symmetry  .  .  .  .  .  .  .  .  .  .  .  .  .  .  .  .  T
 Calculate gradient of basis  .  .  .  .  .  .  .  .  .  .  .  T
 Calculate sec. der. of basis .  .  .  .  .  .  .  .  .  .  .  F
 Calculate operator T working on basis .  .  .  .  .  .  .  .  T
 Calculate dk-basis  .  .  .  .  .  .  .  .  .  .  .  .  .  .  F
 Calculate gradient of fit .  .  .  .  .  .  .  .  .  .  .  .  T
 Calculate sec. der. of fit.  .  .  .  .  .  .  .  .  .  .  .  T
 Calculate gradient of fit pot.  .  .  .  .  .  .  .  .  .  .  F
 Kin. energy via grad.  .  .  .  .  .  .  .  .  .  .  .  .  .  F
 Turnover rule for xc.  .  .  .  .  .  .  .  .  .  .  .  .  .  F
 Calculate gradient of energy .  .  .  .  .  .  .  .  .  .  .  T
 Calculate analytical strain derivatives  .  .  .  .  .  .  .  F
 Calculate kin. energy density.  .  .  .  .  .  .  .  .  .  .  F
 Calculate nuc. grad of kin. energy density  .  .  .  .  .  .  F
 Calculate der. of density .  .  .  .  .  .  .  .  .  .  .  .  T
 Calculate second der. of density.  .  .  .  .  .  .  .  .  .  T
 Calculate nuc. grad. of density .  .  .  .  .  .  .  .  .  .  T
 Calculate nuc. grad. of grad. density .  .  .  .  .  .  .  .  F
 Exact rho during SCF.  .  .  .  .  .  .  .  .  .  .  .  .  .  T
 Exact grad. rho during SCF.  .  .  .  .  .  .  .  .  .  .  .  F
 Exact grad. rho post SCF  .  .  .  .  .  .  .  .  .  .  .  .  T
 Store history of dens. matrix.  .  .  .  .  .  .  .  .  .  .  T
 Store original Bloch functions  .  .  .  .  .  .  .  .  .  .  F
 Direct fit .  .  .  .  .  .  .  .  .  .  .  .  .  .  .  .  .  F
 Direct basis  .  .  .  .  .  .  .  .  .  .  .  .  .  .  .  .  T
 STO based fitting.  .  .  .  .  .  .  .  .  .  .  .  .  .  .  F
 Zlm fitting.  .  .  .  .  .  .  .  .  .  .  .  .  .  .  .  .  T
 Calculate fragment energy in mol. grid.  .  .  .  .  .  .  .  T
 Map atoms to unit cell .  .  .  .  .  .  .  .  .  .  .  .  .  T
 Print output for radial.  .  .  .  .  .  .  .  .  .  .  .  .  T
 Calculate DOS .  .  .  .  .  .  .  .  .  .  .  .  .  .  .  .  T
 Calculate population analysis.  .  .  .  .  .  .  .  .  .  .  T
 Calculate band structure  .  .  .  .  .  .  .  .  .  .  .  .  F
 Calculate EFG .  .  .  .  .  .  .  .  .  .  .  .  .  .  .  .  F
 Calculate properties.  .  .  .  .  .  .  .  .  .  .  .  .  .  T
 Calculate kinetic energy  .  .  .  .  .  .  .  .  .  .  .  .  T
 Save file tape10 .  .  .  .  .  .  .  .  .  .  .  .  .  .  .  F
 Save file Points .  .  .  .  .  .  .  .  .  .  .  .  .  .  .  F



 ==================================================
 G E O M E T R Y    I N    X - Y - Z    F O R M A T
 ==================================================
  
 Og     -1.002012038     0.578511920    -1.920673412
 Og      1.002012038    -0.578511920     1.920673412
 VEC1     4.008048153     0.000000000     0.000000000
 VEC2    -2.004024076     3.471071520     0.000000000
 VEC3     0.000000000     0.000000000     7.682693647

   Total nr. of atoms:          2





                       3 - D I M E N S I O N A L   C R Y S T A L




   REAL SPACE LATTICE VECTORS                         LENGTH
   --------------------------                         ------
   1)   7.5741133034   0.0000000000   0.0000000000     7.574
   2)  -3.7870566517   6.5593745319   0.0000000000     7.574
   3)   0.0000000000   0.0000000000  14.5181868930    14.518

   ----------------------------------------
   Angles between lattice vectors
   ----------------------------------------

     pair          angle

     2 1           120.000000
     3 1            90.000000
     3 2            90.000000
 

   Volume of unit cell (a.u.):               721.28
   Volume of unit cell (Angstrom**3):        106.88



   K-SPACE LATTICE VECTORS                            LENGTH
   -----------------------                            ------
   1)   0.8295605116   0.4789469847   0.0000000000     0.958
   2)   0.0000000000   0.9578939694   0.0000000000     0.958
   3)   0.0000000000   0.0000000000   0.4327803019     0.433


 INTER-ATOMIC DISTANCES (REDUCED)
 --------------------------------
   2)
    8.4745


 SMALLEST INTERATOMIC DISTANCE =      8.474481406516
 BeckeGrid: periodic partition function using cells up to order           19



 ===============================
 K - S P A C E   S A M P L I N G
 ===============================
  
 Automatic Regular k-space grid for quality: NORMAL
 
    lattice-vec. size(real space)    size(k-space)   #points   delta-k
               1             6.56             0.96         5     0.239
               2             6.56             0.96         5     0.239
               3            14.52             0.43         3     0.216
 
             Total nr. of unique k-points 12




 =========
 C E L L S
 =========
  

   Nr. of cells for valence functions:        189



 ===========================
 L I N E A R   S C A L I N G
 ===========================
  
 Neglecting functions
              Valence  1.00E-06
                 Core  1.00E-06
                  Fit  0.00E+00
            Multipole  1.00E-08
   Screening function  3.16E-05



 =========================================
 N U M E R I C A L   I N T E G R A T I O N
 =========================================
  
 Becke grid quality: NORMAL         
  
 Lebedev angular grid order:             min:  11 max:  31
 Nr. of radial points:                   min: 206 max: 206

 Total nr. of points                                 202752
 Block length                                           128
 Nr. of unique blocks                                    66
 Total nr. of blocks                                   1584

 Percentage dummy points                               0.00%
 Nr. of k-points processed together in baspnt            30
 Nr. of symmetry operators (real space)                  24
 Symmetry operators in k-space                           24



 Total charge,    analytically                          236.000000000000
                  numerically                           236.000035332840
                  relative error                      0.15E-06

 Valence density, analytically                          236.000000000000
                  numerically                           236.000035332840
                  relative error                      0.15E-06
 use shared memory for sandwiching:  F , as int:            0

 Norms of functions from routine baspnt
 Maximum error in norms     8.103E-05 for function      180
 Minimum accuracy required  1.000E-03

 Sparseness info - valence
   nr. of functions             548
   max. nr. of functions        440
   min. nr. of functions        200
   avr. nr. of functions        279
   percentage stored           50.9
 
 PrepareHam: needLdotB F



 ========================
 Density Fitting (zlmFit)
 ========================
  
 ZlmFit Fit Quality: NORMAL         
  
 Max L-expansion:                        min:   8 max:   8
 Nr. of radial interpolation points:     min: 132 max: 132
 BeckeGrid: periodic partition function using cells up to order           10
 BeckeGrid: periodic partition function using cells up to order           10



                                          *******************************
                                          *  S C F   P R O C E D U R E  *
                                          *******************************
  

 Nr. of basis functions                     548
 Nr. of core functions                        0
 Nr. of fit functions                         0
 Nr. of symmetry unique K-points             12
 Valence charge                          236.00
 Nr. of symmetry operators                   24

 CONVERGENCE REACHED



                                             *************************
                                             *  P R O P E R T I E S  *
                                             *************************
  



 ===================================
 B A N D   E N E R G Y   R A N G E S
 ===================================
  
 The energies below are in Hartree.
 =================================================
       band          min          max   occupation
 =================================================
        221     -1.02185     -1.01203      1.00000
        222     -1.02185     -1.01203      1.00000
        223     -1.02031     -1.01203      1.00000
        224     -1.02031     -1.01203      1.00000
        225     -0.56860     -0.54984      1.00000
        226     -0.56860     -0.54984      1.00000
        227     -0.56848     -0.54356      1.00000
        228     -0.56848     -0.54356      1.00000
        229     -0.28179     -0.24001      1.00000
        230     -0.28179     -0.24001      1.00000
        231     -0.27839     -0.15914      1.00000
        232     -0.27839     -0.15914      1.00000
        233     -0.24826     -0.12749      1.00000
        234     -0.24826     -0.12749      1.00000
        235     -0.21736     -0.12749      1.00000
        236     -0.21736     -0.12749      1.00000
        237     -0.12110      0.00208      0.00000
        238     -0.12110      0.00208      0.00000
        239     -0.05851      0.03944      0.00000
        240     -0.05851      0.03944      0.00000
        241      0.05150      0.14632      0.00000
        242      0.05150      0.14632      0.00000
        243      0.07655      0.17709      0.00000
        244      0.07655      0.17709      0.00000
        245      0.09523      0.30719      0.00000
        246      0.09523      0.30719      0.00000
        247      0.14492      0.30719      0.00000
        248      0.14492      0.30719      0.00000
        249      0.22838      0.32005      0.00000
        250      0.22838      0.32005      0.00000
        251      0.23488      0.35999      0.00000
        252      0.23488      0.35999      0.00000
        253      0.30278      0.42505      0.00000
        254      0.30278      0.42505      0.00000
        255      0.33345      0.43208      0.00000
        256      0.33345      0.43208      0.00000
        257      0.36831      0.45046      0.00000
        258      0.36831      0.45046      0.00000
        259      0.36831      0.48562      0.00000
        260      0.36831      0.48562      0.00000
        261      0.46330      0.53500      0.00000
        262      0.46330      0.53500      0.00000
        263      0.48059      0.55577      0.00000
        264      0.48059      0.55577      0.00000
        265      0.51981      0.65480      0.00000
        266      0.51981      0.65480      0.00000
        267      0.53209      0.65480      0.00000
        268      0.53209      0.65480      0.00000
        269      0.56125      0.75661      0.00000
        270      0.56125      0.75661      0.00000
        271      0.57097      0.79531      0.00000
        272      0.57097      0.79531      0.00000
        273      0.73743      0.87376      0.00000
        274      0.73743      0.87376      0.00000
        275      0.79303      0.94211      0.00000
        276      0.79303      0.94211      0.00000
 =================================================
 Final bond energy (PBESol)                                   -0.04199180      -1.1427      -26.35
 Needs range separation F F
 Range separation string: 
 Needs range separation F F
 Range separation string: 
 K-points configuration loaded from previous results: GO1_GOStep1.rkf



                                          *******************************
                                          *  S C F   P R O C E D U R E  *
                                          *******************************
  

 Nr. of basis functions                     548
 Nr. of core functions                        0
 Nr. of fit functions                         0
 Nr. of symmetry unique K-points             12
 Valence charge                          236.00
 Nr. of symmetry operators                   24

 CONVERGENCE REACHED



                                             *************************
                                             *  P R O P E R T I E S  *
                                             *************************
  



 ===================================
 B A N D   E N E R G Y   R A N G E S
 ===================================
  
 The energies below are in Hartree.
 =================================================
       band          min          max   occupation
 =================================================
        221     -1.02190     -1.01202      1.00000
        222     -1.02190     -1.01202      1.00000
        223     -1.02036     -1.01202      1.00000
        224     -1.02036     -1.01202      1.00000
        225     -0.56866     -0.54980      1.00000
        226     -0.56866     -0.54980      1.00000
        227     -0.56855     -0.54351      1.00000
        228     -0.56855     -0.54351      1.00000
        229     -0.28192     -0.24005      1.00000
        230     -0.28192     -0.24005      1.00000
        231     -0.27852     -0.15909      1.00000
        232     -0.27852     -0.15909      1.00000
        233     -0.24833     -0.12715      1.00000
        234     -0.24833     -0.12715      1.00000
        235     -0.21743     -0.12715      1.00000
        236     -0.21743     -0.12715      1.00000
        237     -0.12076      0.00215      0.00000
        238     -0.12076      0.00215      0.00000
        239     -0.05850      0.03962      0.00000
        240     -0.05850      0.03962      0.00000
        241      0.05164      0.14670      0.00000
        242      0.05164      0.14670      0.00000
        243      0.07667      0.17728      0.00000
        244      0.07667      0.17728      0.00000
        245      0.09547      0.30721      0.00000
        246      0.09547      0.30721      0.00000
        247      0.14530      0.30721      0.00000
        248      0.14530      0.30721      0.00000
        249      0.22850      0.32061      0.00000
        250      0.22850      0.32061      0.00000
        251      0.23481      0.36022      0.00000
        252      0.23481      0.36022      0.00000
        253      0.30236      0.42511      0.00000
        254      0.30236      0.42511      0.00000
        255      0.33358      0.43220      0.00000
        256      0.33358      0.43220      0.00000
        257      0.36809      0.45076      0.00000
        258      0.36809      0.45076      0.00000
        259      0.36809      0.48593      0.00000
        260      0.36809      0.48593      0.00000
        261      0.46341      0.53567      0.00000
        262      0.46341      0.53567      0.00000
        263      0.48089      0.55641      0.00000
        264      0.48089      0.55641      0.00000
        265      0.51995      0.65537      0.00000
        266      0.51995      0.65537      0.00000
        267      0.53205      0.65537      0.00000
        268      0.53205      0.65537      0.00000
        269      0.56202      0.75719      0.00000
        270      0.56202      0.75719      0.00000
        271      0.57130      0.79587      0.00000
        272      0.57130      0.79587      0.00000
        273      0.73743      0.87470      0.00000
        274      0.73743      0.87470      0.00000
        275      0.79315      0.94232      0.00000
        276      0.79315      0.94232      0.00000
 =================================================
 Final bond energy (PBESol)                                   -0.04194351      -1.1413      -26.32
 Needs range separation F F
 Range separation string: 
 K-points configuration loaded from previous results: GO1_GOStep1.rkf



                                          *******************************
                                          *  S C F   P R O C E D U R E  *
                                          *******************************
  

 Nr. of basis functions                     548
 Nr. of core functions                        0
 Nr. of fit functions                         0
 Nr. of symmetry unique K-points             12
 Valence charge                          236.00
 Nr. of symmetry operators                   24

 CONVERGENCE REACHED



                                             *************************
                                             *  P R O P E R T I E S  *
                                             *************************
  



 ===================================
 B A N D   E N E R G Y   R A N G E S
 ===================================
  
 The energies below are in Hartree.
 =================================================
       band          min          max   occupation
 =================================================
        221     -1.02186     -1.01203      1.00000
        222     -1.02186     -1.01203      1.00000
        223     -1.02030     -1.01203      1.00000
        224     -1.02030     -1.01203      1.00000
        225     -0.56860     -0.54984      1.00000
        226     -0.56860     -0.54984      1.00000
        227     -0.56849     -0.54352      1.00000
        228     -0.56849     -0.54352      1.00000
        229     -0.28186     -0.24005      1.00000
        230     -0.28186     -0.24005      1.00000
        231     -0.27843     -0.15889      1.00000
        232     -0.27843     -0.15889      1.00000
        233     -0.24835     -0.12750      1.00000
        234     -0.24835     -0.12750      1.00000
        235     -0.21728     -0.12750      1.00000
        236     -0.21728     -0.12750      1.00000
        237     -0.12106      0.00208      0.00000
        238     -0.12106      0.00208      0.00000
        239     -0.05832      0.03956      0.00000
        240     -0.05832      0.03956      0.00000
        241      0.05158      0.14665      0.00000
        242      0.05158      0.14665      0.00000
        243      0.07651      0.17671      0.00000
        244      0.07651      0.17671      0.00000
        245      0.09531      0.30714      0.00000
        246      0.09531      0.30714      0.00000
        247      0.14500      0.30714      0.00000
        248      0.14500      0.30714      0.00000
        249      0.22810      0.31996      0.00000
        250      0.22810      0.31996      0.00000
        251      0.23489      0.36022      0.00000
        252      0.23489      0.36022      0.00000
        253      0.30268      0.42538      0.00000
        254      0.30268      0.42538      0.00000
        255      0.33341      0.43231      0.00000
        256      0.33341      0.43231      0.00000
        257      0.36830      0.45075      0.00000
        258      0.36830      0.45075      0.00000
        259      0.36830      0.48590      0.00000
        260      0.36830      0.48590      0.00000
        261      0.46362      0.53506      0.00000
        262      0.46362      0.53506      0.00000
        263      0.48106      0.55607      0.00000
        264      0.48106      0.55607      0.00000
        265      0.52034      0.65524      0.00000
        266      0.52034      0.65524      0.00000
        267      0.53276      0.65524      0.00000
        268      0.53276      0.65524      0.00000
        269      0.56126      0.75721      0.00000
        270      0.56126      0.75721      0.00000
        271      0.57146      0.79601      0.00000
        272      0.57146      0.79601      0.00000
        273      0.73835      0.87404      0.00000
        274      0.73835      0.87404      0.00000
        275      0.79351      0.94307      0.00000
        276      0.79351      0.94307      0.00000
 =================================================
 Final bond energy (PBESol)                                   -0.04194601      -1.1414      -26.32
 
----------------------------------------------------------------------
Geometry Convergence after Step   1       (Hartree/Angstrom,Angstrom)
----------------------------------------------------------------------
current energy                               -0.04199180 Hartree
energy change                      -0.04199180     0.00002000    F
max stress energy / atom            0.00052396     0.00050000    F
constrained gradient max            0.00000000     0.00100000    T
constrained gradient rms            0.00000000     0.00066667    T
gradient max                        0.00000000
gradient rms                        0.00000000
cart. step max                      0.00001469     0.01000000    T
cart. step rms                      0.00000570     0.00666667    T
 
 
--------
Geometry
--------
Formula: Og2
Atoms
  Index Symbol   x (angstrom)   y (angstrom)   z (angstrom)
      1     Og    -0.00000000    -0.00000000     0.00000000
      2     Og     2.00403754    -1.15703161    -3.84133213
 
Lattice vectors (angstrom)
      1     4.00807508    -0.00000000     0.00000000
      2    -2.00403754     3.47109484    -0.00000000
      3     0.00000000    -0.00000000     7.68266427
 
Unit cell volume (angstrom^3)       106.88437
 
Total System Charge             0.00000
 
 Needs range separation F F
 Range separation string: 
 K-points configuration loaded from previous results: GO1_GOStep1.rkf



                                          *******************************
                                          *  S C F   P R O C E D U R E  *
                                          *******************************
  

 Nr. of basis functions                     548
 Nr. of core functions                        0
 Nr. of fit functions                         0
 Nr. of symmetry unique K-points             12
 Valence charge                          236.00
 Nr. of symmetry operators                   24

 CONVERGENCE REACHED



                                             *************************
                                             *  P R O P E R T I E S  *
                                             *************************
  



 ===================================
 B A N D   E N E R G Y   R A N G E S
 ===================================
  
 The energies below are in Hartree.
 =================================================
       band          min          max   occupation
 =================================================
        221     -1.02185     -1.01203      1.00000
        222     -1.02185     -1.01203      1.00000
        223     -1.02031     -1.01203      1.00000
        224     -1.02031     -1.01203      1.00000
        225     -0.56860     -0.54984      1.00000
        226     -0.56860     -0.54984      1.00000
        227     -0.56848     -0.54356      1.00000
        228     -0.56848     -0.54356      1.00000
        229     -0.28179     -0.24000      1.00000
        230     -0.28179     -0.24000      1.00000
        231     -0.27839     -0.15914      1.00000
        232     -0.27839     -0.15914      1.00000
        233     -0.24826     -0.12749      1.00000
        234     -0.24826     -0.12749      1.00000
        235     -0.21736     -0.12749      1.00000
        236     -0.21736     -0.12749      1.00000
        237     -0.12110      0.00208      0.00000
        238     -0.12110      0.00208      0.00000
        239     -0.05851      0.03944      0.00000
        240     -0.05851      0.03944      0.00000
        241      0.05150      0.14632      0.00000
        242      0.05150      0.14632      0.00000
        243      0.07655      0.17708      0.00000
        244      0.07655      0.17708      0.00000
        245      0.09523      0.30719      0.00000
        246      0.09523      0.30719      0.00000
        247      0.14492      0.30719      0.00000
        248      0.14492      0.30719      0.00000
        249      0.22838      0.32004      0.00000
        250      0.22838      0.32004      0.00000
        251      0.23488      0.35999      0.00000
        252      0.23488      0.35999      0.00000
        253      0.30278      0.42505      0.00000
        254      0.30278      0.42505      0.00000
        255      0.33345      0.43208      0.00000
        256      0.33345      0.43208      0.00000
        257      0.36831      0.45046      0.00000
        258      0.36831      0.45046      0.00000
        259      0.36831      0.48562      0.00000
        260      0.36831      0.48562      0.00000
        261      0.46330      0.53499      0.00000
        262      0.46330      0.53499      0.00000
        263      0.48059      0.55577      0.00000
        264      0.48059      0.55577      0.00000
        265      0.51981      0.65479      0.00000
        266      0.51981      0.65479      0.00000
        267      0.53209      0.65479      0.00000
        268      0.53209      0.65479      0.00000
        269      0.56124      0.75661      0.00000
        270      0.56124      0.75661      0.00000
        271      0.57097      0.79531      0.00000
        272      0.57097      0.79531      0.00000
        273      0.73743      0.87375      0.00000
        274      0.73743      0.87375      0.00000
        275      0.79303      0.94211      0.00000
        276      0.79303      0.94211      0.00000
 =================================================
 Final bond energy (PBESol)                                   -0.04199183      -1.1427      -26.35
 Needs range separation F F
 Range separation string: 
 Needs range separation F F
 Range separation string: 
 K-points configuration loaded from previous results: GO1_GOStep2.rkf



                                          *******************************
                                          *  S C F   P R O C E D U R E  *
                                          *******************************
  

 Nr. of basis functions                     548
 Nr. of core functions                        0
 Nr. of fit functions                         0
 Nr. of symmetry unique K-points             12
 Valence charge                          236.00
 Nr. of symmetry operators                   24
 preparing original eigsys for changed geometry (deltaPerAtom/=0)

 CONVERGENCE REACHED



                                             *************************
                                             *  P R O P E R T I E S  *
                                             *************************
  



 ===================================
 B A N D   E N E R G Y   R A N G E S
 ===================================
  
 The energies below are in Hartree.
 =================================================
       band          min          max   occupation
 =================================================
        221     -1.02198     -1.01210      1.00000
        222     -1.02198     -1.01210      1.00000
        223     -1.02044     -1.01210      1.00000
        224     -1.02044     -1.01210      1.00000
        225     -0.56873     -0.54987      1.00000
        226     -0.56873     -0.54987      1.00000
        227     -0.56861     -0.54358      1.00000
        228     -0.56861     -0.54358      1.00000
        229     -0.28197     -0.24009      1.00000
        230     -0.28197     -0.24009      1.00000
        231     -0.27856     -0.15914      1.00000
        232     -0.27856     -0.15914      1.00000
        233     -0.24838     -0.12721      1.00000
        234     -0.24838     -0.12721      1.00000
        235     -0.21748     -0.12721      1.00000
        236     -0.21748     -0.12721      1.00000
        237     -0.12082      0.00212      0.00000
        238     -0.12082      0.00212      0.00000
        239     -0.05855      0.03958      0.00000
        240     -0.05855      0.03958      0.00000
        241      0.05160      0.14667      0.00000
        242      0.05160      0.14667      0.00000
        243      0.07663      0.17723      0.00000
        244      0.07663      0.17723      0.00000
        245      0.09543      0.30716      0.00000
        246      0.09543      0.30716      0.00000
        247      0.14525      0.30716      0.00000
        248      0.14525      0.30716      0.00000
        249      0.22845      0.32057      0.00000
        250      0.22845      0.32057      0.00000
        251      0.23477      0.36017      0.00000
        252      0.23477      0.36017      0.00000
        253      0.30231      0.42506      0.00000
        254      0.30231      0.42506      0.00000
        255      0.33354      0.43214      0.00000
        256      0.33354      0.43214      0.00000
        257      0.36803      0.45071      0.00000
        258      0.36803      0.45071      0.00000
        259      0.36803      0.48587      0.00000
        260      0.36803      0.48587      0.00000
        261      0.46336      0.53560      0.00000
        262      0.46336      0.53560      0.00000
        263      0.48084      0.55635      0.00000
        264      0.48084      0.55635      0.00000
        265      0.51990      0.65532      0.00000
        266      0.51990      0.65532      0.00000
        267      0.53201      0.65532      0.00000
        268      0.53201      0.65532      0.00000
        269      0.56195      0.75714      0.00000
        270      0.56195      0.75714      0.00000
        271      0.57125      0.79581      0.00000
        272      0.57125      0.79581      0.00000
        273      0.73739      0.87463      0.00000
        274      0.73739      0.87463      0.00000
        275      0.79311      0.94227      0.00000
        276      0.79311      0.94227      0.00000
 =================================================
 Final bond energy (PBESol)                                   -0.04193747      -1.1412      -26.32
 Needs range separation F F
 Range separation string: 
 K-points configuration loaded from previous results: GO1_GOStep2.rkf



                                          *******************************
                                          *  S C F   P R O C E D U R E  *
                                          *******************************
  

 Nr. of basis functions                     548
 Nr. of core functions                        0
 Nr. of fit functions                         0
 Nr. of symmetry unique K-points             12
 Valence charge                          236.00
 Nr. of symmetry operators                   24

 CONVERGENCE REACHED



                                             *************************
                                             *  P R O P E R T I E S  *
                                             *************************
  



 ===================================
 B A N D   E N E R G Y   R A N G E S
 ===================================
  
 The energies below are in Hartree.
 =================================================
       band          min          max   occupation
 =================================================
        221     -1.02186     -1.01203      1.00000
        222     -1.02186     -1.01203      1.00000
        223     -1.02030     -1.01203      1.00000
        224     -1.02030     -1.01203      1.00000
        225     -0.56860     -0.54984      1.00000
        226     -0.56860     -0.54984      1.00000
        227     -0.56848     -0.54353      1.00000
        228     -0.56848     -0.54353      1.00000
        229     -0.28186     -0.24005      1.00000
        230     -0.28186     -0.24005      1.00000
        231     -0.27843     -0.15889      1.00000
        232     -0.27843     -0.15889      1.00000
        233     -0.24835     -0.12750      1.00000
        234     -0.24835     -0.12750      1.00000
        235     -0.21728     -0.12750      1.00000
        236     -0.21728     -0.12750      1.00000
        237     -0.12107      0.00208      0.00000
        238     -0.12107      0.00208      0.00000
        239     -0.05831      0.03956      0.00000
        240     -0.05831      0.03956      0.00000
        241      0.05158      0.14665      0.00000
        242      0.05158      0.14665      0.00000
        243      0.07651      0.17670      0.00000
        244      0.07651      0.17670      0.00000
        245      0.09531      0.30714      0.00000
        246      0.09531      0.30714      0.00000
        247      0.14500      0.30714      0.00000
        248      0.14500      0.30714      0.00000
        249      0.22810      0.31996      0.00000
        250      0.22810      0.31996      0.00000
        251      0.23489      0.36021      0.00000
        252      0.23489      0.36021      0.00000
        253      0.30269      0.42538      0.00000
        254      0.30269      0.42538      0.00000
        255      0.33341      0.43231      0.00000
        256      0.33341      0.43231      0.00000
        257      0.36830      0.45075      0.00000
        258      0.36830      0.45075      0.00000
        259      0.36830      0.48590      0.00000
        260      0.36830      0.48590      0.00000
        261      0.46362      0.53506      0.00000
        262      0.46362      0.53506      0.00000
        263      0.48106      0.55606      0.00000
        264      0.48106      0.55606      0.00000
        265      0.52034      0.65524      0.00000
        266      0.52034      0.65524      0.00000
        267      0.53276      0.65524      0.00000
        268      0.53276      0.65524      0.00000
        269      0.56126      0.75721      0.00000
        270      0.56126      0.75721      0.00000
        271      0.57146      0.79600      0.00000
        272      0.57146      0.79600      0.00000
        273      0.73836      0.87403      0.00000
        274      0.73836      0.87403      0.00000
        275      0.79351      0.94307      0.00000
        276      0.79351      0.94307      0.00000
 =================================================
 Final bond energy (PBESol)                                   -0.04194601      -1.1414      -26.32
 
----------------------------------------------------------------------
Geometry Convergence after Step   2       (Hartree/Angstrom,Angstrom)
----------------------------------------------------------------------
current energy                               -0.04199183 Hartree
energy change                      -0.00000003     0.00002000    T
max stress energy / atom            0.00052865     0.00050000    F
constrained gradient max            0.00000000     0.00100000    T
constrained gradient rms            0.00000000     0.00066667    T
gradient max                        0.00000000
gradient rms                        0.00000000
cart. step max                      0.00258435     0.01000000    T
cart. step rms                      0.00101144     0.00666667    T
 
 
--------
Geometry
--------
Formula: Og2
Atoms
  Index Symbol   x (angstrom)   y (angstrom)   z (angstrom)
      1     Og    -0.00000000     0.00000000     0.00000000
      2     Og     2.00644547    -1.15842183    -3.83874779
 
Lattice vectors (angstrom)
      1     4.01289095    -0.00000000    -0.00000000
      2    -2.00644547     3.47526550     0.00000000
      3    -0.00000000     0.00000000     7.67749558
 
Unit cell volume (angstrom^3)       107.06929
 
Total System Charge             0.00000
 
 Needs range separation F F
 Range separation string: 
 K-points configuration loaded from previous results: GO1_GOStep2.rkf



                                          *******************************
                                          *  S C F   P R O C E D U R E  *
                                          *******************************
  

 Nr. of basis functions                     548
 Nr. of core functions                        0
 Nr. of fit functions                         0
 Nr. of symmetry unique K-points             12
 Valence charge                          236.00
 Nr. of symmetry operators                   24
 preparing original eigsys for changed geometry (deltaPerAtom/=0)

 CONVERGENCE REACHED



                                             *************************
                                             *  P R O P E R T I E S  *
                                             *************************
  



 ===================================
 B A N D   E N E R G Y   R A N G E S
 ===================================
  
 The energies below are in Hartree.
 =================================================
       band          min          max   occupation
 =================================================
        221     -1.02183     -1.01212      1.00000
        222     -1.02183     -1.01212      1.00000
        223     -1.02029     -1.01212      1.00000
        224     -1.02029     -1.01212      1.00000
        225     -0.56856     -0.54997      1.00000
        226     -0.56856     -0.54997      1.00000
        227     -0.56844     -0.54370      1.00000
        228     -0.56844     -0.54370      1.00000
        229     -0.28166     -0.24000      1.00000
        230     -0.28166     -0.24000      1.00000
        231     -0.27824     -0.15910      1.00000
        232     -0.27824     -0.15910      1.00000
        233     -0.24825     -0.12813      1.00000
        234     -0.24825     -0.12813      1.00000
        235     -0.21723     -0.12813      1.00000
        236     -0.21723     -0.12813      1.00000
        237     -0.12171      0.00192      0.00000
        238     -0.12171      0.00192      0.00000
        239     -0.05844      0.03920      0.00000
        240     -0.05844      0.03920      0.00000
        241      0.05129      0.14588      0.00000
        242      0.05129      0.14588      0.00000
        243      0.07629      0.17646      0.00000
        244      0.07629      0.17646      0.00000
        245      0.09483      0.30707      0.00000
        246      0.09483      0.30707      0.00000
        247      0.14429      0.30707      0.00000
        248      0.14429      0.30707      0.00000
        249      0.22794      0.31901      0.00000
        250      0.22794      0.31901      0.00000
        251      0.23496      0.35970      0.00000
        252      0.23496      0.35970      0.00000
        253      0.30337      0.42511      0.00000
        254      0.30337      0.42511      0.00000
        255      0.33317      0.43198      0.00000
        256      0.33317      0.43198      0.00000
        257      0.36861      0.45009      0.00000
        258      0.36861      0.45009      0.00000
        259      0.36861      0.48523      0.00000
        260      0.36861      0.48523      0.00000
        261      0.46327      0.53383      0.00000
        262      0.46327      0.53383      0.00000
        263      0.48034      0.55482      0.00000
        264      0.48034      0.55482      0.00000
        265      0.51990      0.65406      0.00000
        266      0.51990      0.65406      0.00000
        267      0.53256      0.65406      0.00000
        268      0.53256      0.65406      0.00000
        269      0.55988      0.75596      0.00000
        270      0.55988      0.75596      0.00000
        271      0.57069      0.79479      0.00000
        272      0.57069      0.79479      0.00000
        273      0.73801      0.87229      0.00000
        274      0.73801      0.87229      0.00000
        275      0.79311      0.94234      0.00000
        276      0.79311      0.94234      0.00000
 =================================================
 Final bond energy (PBESol)                                   -0.04198742      -1.1425      -26.35
 Needs range separation F F
 Range separation string: 
 Needs range separation F F
 Range separation string: 
 K-points configuration loaded from previous results: GO1_GOStep3.rkf



                                          *******************************
                                          *  S C F   P R O C E D U R E  *
                                          *******************************
  

 Nr. of basis functions                     548
 Nr. of core functions                        0
 Nr. of fit functions                         0
 Nr. of symmetry unique K-points             12
 Valence charge                          236.00
 Nr. of symmetry operators                   24

 CONVERGENCE REACHED



                                             *************************
                                             *  P R O P E R T I E S  *
                                             *************************
  



 ===================================
 B A N D   E N E R G Y   R A N G E S
 ===================================
  
 The energies below are in Hartree.
 =================================================
       band          min          max   occupation
 =================================================
        221     -1.02189     -1.01211      1.00000
        222     -1.02189     -1.01211      1.00000
        223     -1.02034     -1.01211      1.00000
        224     -1.02034     -1.01211      1.00000
        225     -0.56862     -0.54994      1.00000
        226     -0.56862     -0.54994      1.00000
        227     -0.56851     -0.54364      1.00000
        228     -0.56851     -0.54364      1.00000
        229     -0.28179     -0.24004      1.00000
        230     -0.28179     -0.24004      1.00000
        231     -0.27837     -0.15905      1.00000
        232     -0.27837     -0.15905      1.00000
        233     -0.24832     -0.12779      1.00000
        234     -0.24832     -0.12779      1.00000
        235     -0.21730     -0.12779      1.00000
        236     -0.21730     -0.12779      1.00000
        237     -0.12137      0.00200      0.00000
        238     -0.12137      0.00200      0.00000
        239     -0.05843      0.03937      0.00000
        240     -0.05843      0.03937      0.00000
        241      0.05142      0.14626      0.00000
        242      0.05142      0.14626      0.00000
        243      0.07640      0.17665      0.00000
        244      0.07640      0.17665      0.00000
        245      0.09507      0.30709      0.00000
        246      0.09507      0.30709      0.00000
        247      0.14466      0.30709      0.00000
        248      0.14466      0.30709      0.00000
        249      0.22806      0.31956      0.00000
        250      0.22806      0.31956      0.00000
        251      0.23489      0.35993      0.00000
        252      0.23489      0.35993      0.00000
        253      0.30295      0.42518      0.00000
        254      0.30295      0.42518      0.00000
        255      0.33329      0.43210      0.00000
        256      0.33329      0.43210      0.00000
        257      0.36840      0.45039      0.00000
        258      0.36840      0.45039      0.00000
        259      0.36840      0.48554      0.00000
        260      0.36840      0.48554      0.00000
        261      0.46339      0.53450      0.00000
        262      0.46339      0.53450      0.00000
        263      0.48065      0.55547      0.00000
        264      0.48065      0.55547      0.00000
        265      0.52004      0.65465      0.00000
        266      0.52004      0.65465      0.00000
        267      0.53253      0.65465      0.00000
        268      0.53253      0.65465      0.00000
        269      0.56065      0.75656      0.00000
        270      0.56065      0.75656      0.00000
        271      0.57103      0.79535      0.00000
        272      0.57103      0.79535      0.00000
        273      0.73802      0.87323      0.00000
        274      0.73802      0.87323      0.00000
        275      0.79324      0.94257      0.00000
        276      0.79324      0.94257      0.00000
 =================================================
 Final bond energy (PBESol)                                   -0.04194084      -1.1413      -26.32
 Needs range separation F F
 Range separation string: 
 K-points configuration loaded from previous results: GO1_GOStep3.rkf



                                          *******************************
                                          *  S C F   P R O C E D U R E  *
                                          *******************************
  

 Nr. of basis functions                     548
 Nr. of core functions                        0
 Nr. of fit functions                         0
 Nr. of symmetry unique K-points             12
 Valence charge                          236.00
 Nr. of symmetry operators                   24

 CONVERGENCE REACHED



                                             *************************
                                             *  P R O P E R T I E S  *
                                             *************************
  



 ===================================
 B A N D   E N E R G Y   R A N G E S
 ===================================
  
 The energies below are in Hartree.
 =================================================
       band          min          max   occupation
 =================================================
        221     -1.02184     -1.01212      1.00000
        222     -1.02184     -1.01212      1.00000
        223     -1.02029     -1.01212      1.00000
        224     -1.02029     -1.01212      1.00000
        225     -0.56856     -0.54997      1.00000
        226     -0.56856     -0.54997      1.00000
        227     -0.56844     -0.54366      1.00000
        228     -0.56844     -0.54366      1.00000
        229     -0.28173     -0.24004      1.00000
        230     -0.28173     -0.24004      1.00000
        231     -0.27828     -0.15885      1.00000
        232     -0.27828     -0.15885      1.00000
        233     -0.24834     -0.12814      1.00000
        234     -0.24834     -0.12814      1.00000
        235     -0.21715     -0.12814      1.00000
        236     -0.21715     -0.12814      1.00000
        237     -0.12168      0.00192      0.00000
        238     -0.12168      0.00192      0.00000
        239     -0.05825      0.03932      0.00000
        240     -0.05825      0.03932      0.00000
        241      0.05137      0.14620      0.00000
        242      0.05137      0.14620      0.00000
        243      0.07625      0.17608      0.00000
        244      0.07625      0.17608      0.00000
        245      0.09491      0.30701      0.00000
        246      0.09491      0.30701      0.00000
        247      0.14436      0.30701      0.00000
        248      0.14436      0.30701      0.00000
        249      0.22766      0.31892      0.00000
        250      0.22766      0.31892      0.00000
        251      0.23498      0.35992      0.00000
        252      0.23498      0.35992      0.00000
        253      0.30328      0.42543      0.00000
        254      0.30328      0.42543      0.00000
        255      0.33313      0.43220      0.00000
        256      0.33313      0.43220      0.00000
        257      0.36861      0.45037      0.00000
        258      0.36861      0.45037      0.00000
        259      0.36861      0.48550      0.00000
        260      0.36861      0.48550      0.00000
        261      0.46359      0.53388      0.00000
        262      0.46359      0.53388      0.00000
        263      0.48080      0.55509      0.00000
        264      0.48080      0.55509      0.00000
        265      0.52042      0.65449      0.00000
        266      0.52042      0.65449      0.00000
        267      0.53324      0.65449      0.00000
        268      0.53324      0.65449      0.00000
        269      0.55989      0.75654      0.00000
        270      0.55989      0.75654      0.00000
        271      0.57117      0.79547      0.00000
        272      0.57117      0.79547      0.00000
        273      0.73893      0.87255      0.00000
        274      0.73893      0.87255      0.00000
        275      0.79359      0.94328      0.00000
        276      0.79359      0.94328      0.00000
 =================================================
 Final bond energy (PBESol)                                   -0.04194143      -1.1413      -26.32

 dE(predicted):    -0.14609E-05, dE(actual):     0.44074E-05, Trust radius:    0.020000, all in a.u.
 
---------------------------------------------------------
Geometry Convergence after Step   3       ** CONVERGED **
---------------------------------------------------------
current energy                               -0.04198742 Hartree
energy change                       0.00000441     0.00002000    T
max stress energy / atom            0.00032193     0.00050000    T
constrained gradient max            0.00000000     0.00100000    T
constrained gradient rms            0.00000000     0.00066667    T
gradient max                        0.00000000
gradient rms                        0.00000000
cart. step max                      0.00019909     0.01000000    T
cart. step rms                      0.00008072     0.00666667    T
 
Geometry optimization converged

Optimized geometry:
 
--------
Geometry
--------
Formula: Og2
Atoms
  Index Symbol   x (angstrom)   y (angstrom)   z (angstrom)
      1     Og    -0.00000000     0.00000000     0.00000000
      2     Og     2.00644547    -1.15842183    -3.83874779
 
Lattice vectors (angstrom)
      1     4.01289095    -0.00000000    -0.00000000
      2    -2.00644547     3.47526550     0.00000000
      3    -0.00000000     0.00000000     7.67749558
 
Unit cell volume (angstrom^3)       107.06929
 
Total System Charge             0.00000
 
Performing a single point calculation on the final geometry ...

 Needs range separation F F
 Range separation string: 
 K-points configuration loaded from previous results: GO1_GOStep3.rkf
 SCF procedure tweaks
   * counter           0
   * addExtraPotential F
   * addExtraPotentialOnLastCycle F
   * extraPotentialName
   * reuseEigenSystem F
 
 skipDiagonalization F parmix=  7.500000000000000E-002 ncylx=         300
 restartSCF T
 forceRestartSolution F



                                          *******************************
                                          *  S C F   P R O C E D U R E  *
                                          *******************************
  

 Nr. of basis functions                     548
 Nr. of core functions                        0
 Nr. of fit functions                         0
 Nr. of symmetry unique K-points             12
 Valence charge                          236.00
 Nr. of symmetry operators                   24

 Settings for convergence
 --------------------------------------------------------------------------------
   Initial density:          psi
 --------------------------------------------------------------------------------

 restarting scf, max mismatch in geometries:   8.881784197001251E-016
 cyc=  0 err=8.60E-07 cpu=  63s ela=  64s
 cyc=  1 err=2.89E-08 meth=m nvec= 1 mix=0.1768 cpu=  63s ela=  63s fit=1.31E-03

 CONVERGENCE REACHED
 cyc=  2 err=2.01E-08 meth=d nvec= 2 mix=0.6905 cpu=  63s ela=  63s fit=1.31E-03


         -------------------- CYCLE    3 --------------------
 Self consistent error (density)                       2.01E-08



                                             *************************
                                             *  P R O P E R T I E S  *
                                             *************************
  



 ===================================
 B A N D   E N E R G Y   R A N G E S
 ===================================
  
 The energies below are in Hartree.
 =================================================
       band          min          max   occupation
 =================================================
        221     -1.02183     -1.01212      1.00000
        222     -1.02183     -1.01212      1.00000
        223     -1.02029     -1.01212      1.00000
        224     -1.02029     -1.01212      1.00000
        225     -0.56856     -0.54997      1.00000
        226     -0.56856     -0.54997      1.00000
        227     -0.56844     -0.54370      1.00000
        228     -0.56844     -0.54370      1.00000
        229     -0.28166     -0.24000      1.00000
        230     -0.28166     -0.24000      1.00000
        231     -0.27824     -0.15910      1.00000
        232     -0.27824     -0.15910      1.00000
        233     -0.24825     -0.12813      1.00000
        234     -0.24825     -0.12813      1.00000
        235     -0.21723     -0.12813      1.00000
        236     -0.21723     -0.12813      1.00000
        237     -0.12171      0.00192      0.00000
        238     -0.12171      0.00192      0.00000
        239     -0.05844      0.03920      0.00000
        240     -0.05844      0.03920      0.00000
        241      0.05129      0.14588      0.00000
        242      0.05129      0.14588      0.00000
        243      0.07629      0.17646      0.00000
        244      0.07629      0.17646      0.00000
        245      0.09483      0.30707      0.00000
        246      0.09483      0.30707      0.00000
        247      0.14429      0.30707      0.00000
        248      0.14429      0.30707      0.00000
        249      0.22794      0.31901      0.00000
        250      0.22794      0.31901      0.00000
        251      0.23496      0.35970      0.00000
        252      0.23496      0.35970      0.00000
        253      0.30337      0.42511      0.00000
        254      0.30337      0.42511      0.00000
        255      0.33317      0.43198      0.00000
        256      0.33317      0.43198      0.00000
        257      0.36861      0.45009      0.00000
        258      0.36861      0.45009      0.00000
        259      0.36861      0.48523      0.00000
        260      0.36861      0.48523      0.00000
        261      0.46327      0.53383      0.00000
        262      0.46327      0.53383      0.00000
        263      0.48034      0.55482      0.00000
        264      0.48034      0.55482      0.00000
        265      0.51990      0.65406      0.00000
        266      0.51990      0.65406      0.00000
        267      0.53256      0.65406      0.00000
        268      0.53256      0.65406      0.00000
        269      0.55988      0.75596      0.00000
        270      0.55988      0.75596      0.00000
        271      0.57069      0.79479      0.00000
        272      0.57069      0.79479      0.00000
        273      0.73801      0.87229      0.00000
        274      0.73801      0.87229      0.00000
        275      0.79311      0.94234      0.00000
        276      0.79311      0.94234      0.00000
 =================================================

----------------------------------------
Band gap information
----------------------------------------
Number of valence electrons                   236
Valence band index                            236
Top of valence band (a.u.)                 -0.128
Bottom of conduction band (a.u.)           -0.122
Top of valence band at k-point              0.000    -0.000    -0.217
Bottom of conduction band at k-point        0.000     0.000     0.000
Indirect band gap
Band gap (a.u.)                             0.006
Band gap (eV)                               0.175
Band gap (kcal/mol)                         4.028
 



 =============================
 E N E R G Y   A N A L Y S I S
 =============================
  
 Formation energy w.r.t. spherically-symmetric spin-restricted atoms

                                                             (a.u.)            (eV)     (kCal/mol)
 --------------------------------------------------------------------------------------------------

 Kinetic                                                       0.20274149       5.5169      127.22
 XC                                                           -0.07238569      -1.9697      -45.42
 Electrostatic                                                -0.09483106      -2.5805      -59.51
 V(atomic)*def                                                -0.07974853      -2.1701      -50.04
 V(def)*def                                                    0.00223636       0.0609        1.40
 --------------------------------------------------------------------------------------------------

 Final bond energy (PBESol)                                   -0.04198742      -1.1425      -26.35
 
 Fit error correction used (Vdef*err)                         -0.00000267      -0.0001       -0.00

 ==================================================================================================
 Rigid motions settings for: RemoveFreeMovements
 Atomic rotations (x,y,z):     F F F
 Atomic translations (x,y,z):  T T T
 Tolerance:                   1.000000000000000E-006



 ================================
 E N E R G Y    G R A D I E N T S
 ================================
  
 (Energy gradients wrt nuclear displacements in Hartree per Bohr)
 
 
 FINAL GRADIENTS
    1 Og  0.000000 -0.000000 -0.000000
    2 Og -0.000000  0.000000  0.000000
 



 =======================
 F O R M   F A C T O R S
 =======================
  




 Form factors (amplitude and phase/pi)

 First line : direct projection 
 Second line: overlap taken into account

 N.B.: the coefficients in the expansion of the total coulomb potential
       due to the nuclear charges have been removed analytically.

 --------------------------------------------------------------------------------------------
                                       Total            Total     Deformation     Deformation
        Coordinates                  Density        Potential         Density       Potential
 --------------------------------------------------------------------------------------------

   1)      0      0      0     236.0000  1.00  182.9945  0.00    0.0000  0.00    6.3193  0.00
       0.000  0.000  0.000     235.9781  1.00  182.9624 -0.00    0.0000  0.00    6.3190 -0.00

   2)      0      0     -1       0.0000  0.00    0.0000  0.00    0.0000  0.00    0.0000  0.00
      -0.000  0.000 -0.433       0.0000  0.00    0.0000  0.00    0.0000  0.00    0.0000  0.00

   3)      0      0     -2     216.9869  0.00  216.9863 -0.00    0.1594  1.00    0.1599  1.00
      -0.000  0.000 -0.866     216.9631  0.00  216.9889 -0.00    0.1594  1.00    0.1599  1.00

 --------------------------------------------------------------------------------------------


   noper                                       24
   nfunc                                      548
   nprocsThisNode                               4
   nfuncThisProcess                           137
   safeMaxFuncSliceSize                         6
   requestedMaxFuncSliceSize                  128
   actual maxFuncSliceSize                     69
   numSlices                                    2
   nEnergies                                  268
       Nr. of bands used for DOS:    273
   nband_dosplot                              273
   bandSliceSize                               31
   num band slices                              9



 =======================================
 M U L L I K E N   P O P U L A T I O N S
 =======================================
  

 BASISFUNCTION         Q
 --------------------------------
 1/Og/NO/1s1/2:+1/2          1.000
 1/Og/NO/1s1/2:-1/2          1.000
 1/Og/NO/2s1/2:+1/2          1.000
 1/Og/NO/2s1/2:-1/2          1.000
 1/Og/NO/2p1/2:+1/2          1.000
 1/Og/NO/2p1/2:-1/2          1.000
 1/Og/NO/2p3/2:+3/2          1.000
 1/Og/NO/2p3/2:+1/2          1.000
 1/Og/NO/2p3/2:-1/2          1.000
 1/Og/NO/2p3/2:-3/2          1.000
 1/Og/NO/3s1/2:+1/2          1.000
 1/Og/NO/3s1/2:-1/2          1.000
 1/Og/NO/3p1/2:+1/2          1.000
 1/Og/NO/3p1/2:-1/2          1.000
 1/Og/NO/3p3/2:+3/2          1.000
 1/Og/NO/3p3/2:+1/2          1.000
 1/Og/NO/3p3/2:-1/2          1.000
 1/Og/NO/3p3/2:-3/2          1.000
 1/Og/NO/3d3/2:+3/2          1.000
 1/Og/NO/3d3/2:+1/2          1.000
 1/Og/NO/3d3/2:-1/2          1.000
 1/Og/NO/3d3/2:-3/2          1.000
 1/Og/NO/3d5/2:+5/2          1.000
 1/Og/NO/3d5/2:+3/2          1.000
 1/Og/NO/3d5/2:+1/2          1.000
 1/Og/NO/3d5/2:-1/2          1.000
 1/Og/NO/3d5/2:-3/2          1.000
 1/Og/NO/3d5/2:-5/2          1.000
 1/Og/NO/4s1/2:+1/2          1.000
 1/Og/NO/4s1/2:-1/2          1.000
 1/Og/NO/4p1/2:+1/2          1.000
 1/Og/NO/4p1/2:-1/2          1.000
 1/Og/NO/4p3/2:+3/2          1.000
 1/Og/NO/4p3/2:+1/2          1.000
 1/Og/NO/4p3/2:-1/2          1.000
 1/Og/NO/4p3/2:-3/2          1.000
 1/Og/NO/4d3/2:+3/2          1.000
 1/Og/NO/4d3/2:+1/2          1.000
 1/Og/NO/4d3/2:-1/2          1.000
 1/Og/NO/4d3/2:-3/2          1.000
 1/Og/NO/4d5/2:+5/2          1.000
 1/Og/NO/4d5/2:+3/2          1.000
 1/Og/NO/4d5/2:+1/2          1.000
 1/Og/NO/4d5/2:-1/2          1.000
 1/Og/NO/4d5/2:-3/2          1.000
 1/Og/NO/4d5/2:-5/2          1.000
 1/Og/NO/5s1/2:+1/2          1.000
 1/Og/NO/5s1/2:-1/2          1.000
 1/Og/NO/5p1/2:+1/2          1.000
 1/Og/NO/5p1/2:-1/2          1.000
 1/Og/NO/5p3/2:+3/2          1.000
 1/Og/NO/5p3/2:+1/2          1.000
 1/Og/NO/5p3/2:-1/2          1.000
 1/Og/NO/5p3/2:-3/2          1.000
 1/Og/NO/4f5/2:+5/2          1.000
 1/Og/NO/4f5/2:+3/2          1.000
 1/Og/NO/4f5/2:+1/2          1.000
 1/Og/NO/4f5/2:-1/2          1.000
 1/Og/NO/4f5/2:-3/2          1.000
 1/Og/NO/4f5/2:-5/2          1.000
 1/Og/NO/4f7/2:+7/2          1.000
 1/Og/NO/4f7/2:+5/2          1.000
 1/Og/NO/4f7/2:+3/2          1.000
 1/Og/NO/4f7/2:+1/2          1.000
 1/Og/NO/4f7/2:-1/2          1.000
 1/Og/NO/4f7/2:-3/2          1.000
 1/Og/NO/4f7/2:-5/2          1.000
 1/Og/NO/4f7/2:-7/2          1.000
 1/Og/NO/5d3/2:+3/2          1.000
 1/Og/NO/5d3/2:+1/2          1.000
 1/Og/NO/5d3/2:-1/2          1.000
 1/Og/NO/5d3/2:-3/2          1.000
 1/Og/NO/5d5/2:+5/2          1.000
 1/Og/NO/5d5/2:+3/2          1.000
 1/Og/NO/5d5/2:+1/2          1.000
 1/Og/NO/5d5/2:-1/2          1.000
 1/Og/NO/5d5/2:-3/2          1.000
 1/Og/NO/5d5/2:-5/2          1.000
 1/Og/NO/6s1/2:+1/2          1.000
 1/Og/NO/6s1/2:-1/2          1.000
 1/Og/NO/6p1/2:+1/2          1.000
 1/Og/NO/6p1/2:-1/2          1.000
 1/Og/NO/6p3/2:+3/2          0.999
 1/Og/NO/6p3/2:+1/2          1.000
 1/Og/NO/6p3/2:-1/2          1.000
 1/Og/NO/6p3/2:-3/2          0.999
 1/Og/NO/5f5/2:+5/2          1.000
 1/Og/NO/5f5/2:+3/2          1.000
 1/Og/NO/5f5/2:+1/2          1.000
 1/Og/NO/5f5/2:-1/2          1.000
 1/Og/NO/5f5/2:-3/2          1.000
 1/Og/NO/5f5/2:-5/2          1.000
 1/Og/NO/5f7/2:+7/2          1.000
 1/Og/NO/5f7/2:+5/2          1.000
 1/Og/NO/5f7/2:+3/2          1.000
 1/Og/NO/5f7/2:+1/2          1.000
 1/Og/NO/5f7/2:-1/2          1.000
 1/Og/NO/5f7/2:-3/2          1.000
 1/Og/NO/5f7/2:-5/2          1.000
 1/Og/NO/5f7/2:-7/2          1.000
 1/Og/NO/6d3/2:+3/2          1.002
 1/Og/NO/6d3/2:+1/2          1.002
 1/Og/NO/6d3/2:-1/2          1.002
 1/Og/NO/6d3/2:-3/2          1.002
 1/Og/NO/6d5/2:+5/2          1.002
 1/Og/NO/6d5/2:+3/2          1.002
 1/Og/NO/6d5/2:+1/2          1.002
 1/Og/NO/6d5/2:-1/2          1.002
 1/Og/NO/6d5/2:-3/2          1.002
 1/Og/NO/6d5/2:-5/2          1.002
 1/Og/NO/7s1/2:+1/2          0.990
 1/Og/NO/7s1/2:-1/2          0.990
 1/Og/NO/7p1/2:+1/2          0.977
 1/Og/NO/7p1/2:-1/2          0.977
 1/Og/NO/7p3/2:+3/2          0.862
 1/Og/NO/7p3/2:+1/2          0.873
 1/Og/NO/7p3/2:-1/2          0.873
 1/Og/NO/7p3/2:-3/2          0.862
 1/Og/STO467/1s1/2:+1/2      0.000
 1/Og/STO467/1s1/2:-1/2      0.000
 1/Og/STO267.6/2s1/2:+1/2    0.000
 1/Og/STO267.6/2s1/2:-1/2    0.000
 1/Og/STO99.9/3s1/2:+1/2     0.000
 1/Og/STO99.9/3s1/2:-1/2     0.000
 1/Og/STO18.7/4s1/2:+1/2     0.000
 1/Og/STO18.7/4s1/2:-1/2     0.000
 1/Og/STO17.95/5s1/2:+1/2   -0.000
 1/Og/STO17.95/5s1/2:-1/2   -0.000
 1/Og/STO6.55/6s1/2:+1/2    -0.000
 1/Og/STO6.55/6s1/2:-1/2    -0.000
 1/Og/STO5.05/7s1/2:+1/2     0.003
 1/Og/STO5.05/7s1/2:-1/2     0.003
 1/Og/STO2.4/7s1/2:+1/2      0.032
 1/Og/STO2.4/7s1/2:-1/2      0.032
 1/Og/STO467/2p1/2:+1/2     -0.000
 1/Og/STO467/2p1/2:-1/2     -0.000
 1/Og/STO467/2p3/2:+3/2     -0.000
 1/Og/STO467/2p3/2:+1/2     -0.000
 1/Og/STO467/2p3/2:-1/2     -0.000
 1/Og/STO467/2p3/2:-3/2     -0.000
 1/Og/STO132.3/2p1/2:+1/2   -0.000
 1/Og/STO132.3/2p1/2:-1/2   -0.000
 1/Og/STO132.3/2p3/2:+3/2   -0.000
 1/Og/STO132.3/2p3/2:+1/2    0.000
 1/Og/STO132.3/2p3/2:-1/2    0.000
 1/Og/STO132.3/2p3/2:-3/2   -0.000
 1/Og/STO26.15/3p1/2:+1/2    0.000
 1/Og/STO26.15/3p1/2:-1/2    0.000
 1/Og/STO26.15/3p3/2:+3/2    0.000
 1/Og/STO26.15/3p3/2:+1/2    0.000
 1/Og/STO26.15/3p3/2:-1/2    0.000
 1/Og/STO26.15/3p3/2:-3/2    0.000
 1/Og/STO26.25/4p1/2:+1/2   -0.000
 1/Og/STO26.25/4p1/2:-1/2   -0.000
 1/Og/STO26.25/4p3/2:+3/2   -0.000
 1/Og/STO26.25/4p3/2:+1/2   -0.000
 1/Og/STO26.25/4p3/2:-1/2   -0.000
 1/Og/STO26.25/4p3/2:-3/2   -0.000
 1/Og/STO10.05/5p1/2:+1/2   -0.000
 1/Og/STO10.05/5p1/2:-1/2   -0.000
 1/Og/STO10.05/5p3/2:+3/2    0.001
 1/Og/STO10.05/5p3/2:+1/2    0.001
 1/Og/STO10.05/5p3/2:-1/2    0.001
 1/Og/STO10.05/5p3/2:-3/2    0.001
 1/Og/STO4.9/6p1/2:+1/2      0.006
 1/Og/STO4.9/6p1/2:-1/2      0.006
 1/Og/STO4.9/6p3/2:+3/2      0.001
 1/Og/STO4.9/6p3/2:+1/2      0.000
 1/Og/STO4.9/6p3/2:-1/2      0.000
 1/Og/STO4.9/6p3/2:-3/2      0.001
 1/Og/STO3.5/7p1/2:+1/2      0.015
 1/Og/STO3.5/7p1/2:-1/2      0.015
 1/Og/STO3.5/7p3/2:+3/2      0.032
 1/Og/STO3.5/7p3/2:+1/2      0.049
 1/Og/STO3.5/7p3/2:-1/2      0.049
 1/Og/STO3.5/7p3/2:-3/2      0.032
 1/Og/STO1.4/7p1/2:+1/2     -0.028
 1/Og/STO1.4/7p1/2:-1/2     -0.028
 1/Og/STO1.4/7p3/2:+3/2      0.096
 1/Og/STO1.4/7p3/2:+1/2      0.077
 1/Og/STO1.4/7p3/2:-1/2      0.077
 1/Og/STO1.4/7p3/2:-3/2      0.096
 1/Og/STO48.7/3d3/2:+3/2    -0.000
 1/Og/STO48.7/3d3/2:+1/2    -0.000
 1/Og/STO48.7/3d3/2:-1/2    -0.000
 1/Og/STO48.7/3d3/2:-3/2    -0.000
 1/Og/STO48.7/3d5/2:+5/2    -0.000
 1/Og/STO48.7/3d5/2:+3/2    -0.000
 1/Og/STO48.7/3d5/2:+1/2    -0.000
 1/Og/STO48.7/3d5/2:-1/2    -0.000
 1/Og/STO48.7/3d5/2:-3/2    -0.000
 1/Og/STO48.7/3d5/2:-5/2    -0.000
 1/Og/STO16.1/4d3/2:+3/2     0.000
 1/Og/STO16.1/4d3/2:+1/2     0.000
 1/Og/STO16.1/4d3/2:-1/2     0.000
 1/Og/STO16.1/4d3/2:-3/2     0.000
 1/Og/STO16.1/4d5/2:+5/2     0.000
 1/Og/STO16.1/4d5/2:+3/2     0.000
 1/Og/STO16.1/4d5/2:+1/2     0.000
 1/Og/STO16.1/4d5/2:-1/2     0.000
 1/Og/STO16.1/4d5/2:-3/2     0.000
 1/Og/STO16.1/4d5/2:-5/2     0.000
 1/Og/STO8.4/5d3/2:+3/2     -0.000
 1/Og/STO8.4/5d3/2:+1/2     -0.000
 1/Og/STO8.4/5d3/2:-1/2     -0.000
 1/Og/STO8.4/5d3/2:-3/2     -0.000
 1/Og/STO8.4/5d5/2:+5/2      0.000
 1/Og/STO8.4/5d5/2:+3/2      0.000
 1/Og/STO8.4/5d5/2:+1/2      0.000
 1/Og/STO8.4/5d5/2:-1/2      0.000
 1/Og/STO8.4/5d5/2:-3/2      0.000
 1/Og/STO8.4/5d5/2:-5/2      0.000
 1/Og/STO6.25/6d3/2:+3/2    -0.002
 1/Og/STO6.25/6d3/2:+1/2    -0.002
 1/Og/STO6.25/6d3/2:-1/2    -0.002
 1/Og/STO6.25/6d3/2:-3/2    -0.002
 1/Og/STO6.25/6d5/2:+5/2    -0.002
 1/Og/STO6.25/6d5/2:+3/2    -0.002
 1/Og/STO6.25/6d5/2:+1/2    -0.002
 1/Og/STO6.25/6d5/2:-1/2    -0.002
 1/Og/STO6.25/6d5/2:-3/2    -0.002
 1/Og/STO6.25/6d5/2:-5/2    -0.002
 1/Og/STO2.8/6d3/2:+3/2      0.005
 1/Og/STO2.8/6d3/2:+1/2      0.003
 1/Og/STO2.8/6d3/2:-1/2      0.003
 1/Og/STO2.8/6d3/2:-3/2      0.005
 1/Og/STO2.8/6d5/2:+5/2      0.003
 1/Og/STO2.8/6d5/2:+3/2      0.001
 1/Og/STO2.8/6d5/2:+1/2      0.002
 1/Og/STO2.8/6d5/2:-1/2      0.002
 1/Og/STO2.8/6d5/2:-3/2      0.001
 1/Og/STO2.8/6d5/2:-5/2      0.003
 1/Og/STO26/4f5/2:+5/2      -0.000
 1/Og/STO26/4f5/2:+3/2      -0.000
 1/Og/STO26/4f5/2:+1/2      -0.000
 1/Og/STO26/4f5/2:-1/2      -0.000
 1/Og/STO26/4f5/2:-3/2      -0.000
 1/Og/STO26/4f5/2:-5/2      -0.000
 1/Og/STO26/4f7/2:+7/2      -0.000
 1/Og/STO26/4f7/2:+5/2      -0.000
 1/Og/STO26/4f7/2:+3/2      -0.000
 1/Og/STO26/4f7/2:+1/2      -0.000
 1/Og/STO26/4f7/2:-1/2      -0.000
 1/Og/STO26/4f7/2:-3/2      -0.000
 1/Og/STO26/4f7/2:-5/2      -0.000
 1/Og/STO26/4f7/2:-7/2      -0.000
 1/Og/STO11.95/5f5/2:+5/2   -0.000
 1/Og/STO11.95/5f5/2:+3/2   -0.000
 1/Og/STO11.95/5f5/2:+1/2   -0.000
 1/Og/STO11.95/5f5/2:-1/2   -0.000
 1/Og/STO11.95/5f5/2:-3/2   -0.000
 1/Og/STO11.95/5f5/2:-5/2   -0.000
 1/Og/STO11.95/5f7/2:+7/2    0.000
 1/Og/STO11.95/5f7/2:+5/2   -0.000
 1/Og/STO11.95/5f7/2:+3/2   -0.000
 1/Og/STO11.95/5f7/2:+1/2   -0.000
 1/Og/STO11.95/5f7/2:-1/2   -0.000
 1/Og/STO11.95/5f7/2:-3/2   -0.000
 1/Og/STO11.95/5f7/2:-5/2   -0.000
[...]
             0.873874E+03             0.127946E-01             0.175755E+02            -0.358437E-01             0.461889E+01
             0.874875E+03             0.128092E-01             0.175808E+02            -0.358994E-01             0.461890E+01
             0.875876E+03             0.128239E-01             0.175860E+02            -0.359552E-01             0.461890E+01
             0.876877E+03             0.128385E-01             0.175913E+02            -0.360109E-01             0.461891E+01
             0.877878E+03             0.128531E-01             0.175966E+02            -0.360667E-01             0.461891E+01
             0.878879E+03             0.128678E-01             0.176018E+02            -0.361225E-01             0.461892E+01
             0.879880E+03             0.128824E-01             0.176071E+02            -0.361783E-01             0.461892E+01
             0.880881E+03             0.128971E-01             0.176124E+02            -0.362341E-01             0.461893E+01
             0.881882E+03             0.129117E-01             0.176176E+02            -0.362900E-01             0.461893E+01
             0.882883E+03             0.129263E-01             0.176228E+02            -0.363458E-01             0.461894E+01
             0.883884E+03             0.129410E-01             0.176281E+02            -0.364017E-01             0.461894E+01
             0.884885E+03             0.129556E-01             0.176333E+02            -0.364576E-01             0.461895E+01
             0.885886E+03             0.129703E-01             0.176385E+02            -0.365135E-01             0.461895E+01
             0.886887E+03             0.129849E-01             0.176437E+02            -0.365694E-01             0.461896E+01
             0.887888E+03             0.129996E-01             0.176489E+02            -0.366254E-01             0.461896E+01
             0.888889E+03             0.130142E-01             0.176542E+02            -0.366813E-01             0.461897E+01
             0.889890E+03             0.130288E-01             0.176594E+02            -0.367373E-01             0.461897E+01
             0.890891E+03             0.130435E-01             0.176645E+02            -0.367933E-01             0.461898E+01
             0.891892E+03             0.130581E-01             0.176697E+02            -0.368493E-01             0.461898E+01
             0.892893E+03             0.130728E-01             0.176749E+02            -0.369053E-01             0.461899E+01
             0.893894E+03             0.130874E-01             0.176801E+02            -0.369613E-01             0.461899E+01
             0.894895E+03             0.131020E-01             0.176853E+02            -0.370174E-01             0.461899E+01
             0.895896E+03             0.131167E-01             0.176904E+02            -0.370735E-01             0.461900E+01
             0.896897E+03             0.131313E-01             0.176956E+02            -0.371295E-01             0.461900E+01
             0.897898E+03             0.131460E-01             0.177007E+02            -0.371856E-01             0.461901E+01
             0.898899E+03             0.131606E-01             0.177059E+02            -0.372418E-01             0.461901E+01
             0.899900E+03             0.131753E-01             0.177110E+02            -0.372979E-01             0.461902E+01
             0.900901E+03             0.131899E-01             0.177162E+02            -0.373541E-01             0.461902E+01
             0.901902E+03             0.132045E-01             0.177213E+02            -0.374102E-01             0.461903E+01
             0.902903E+03             0.132192E-01             0.177264E+02            -0.374664E-01             0.461903E+01
             0.903904E+03             0.132338E-01             0.177315E+02            -0.375226E-01             0.461904E+01
             0.904905E+03             0.132485E-01             0.177366E+02            -0.375788E-01             0.461904E+01
             0.905906E+03             0.132631E-01             0.177417E+02            -0.376351E-01             0.461905E+01
             0.906907E+03             0.132778E-01             0.177468E+02            -0.376913E-01             0.461905E+01
             0.907908E+03             0.132924E-01             0.177519E+02            -0.377476E-01             0.461906E+01
             0.908909E+03             0.133070E-01             0.177570E+02            -0.378038E-01             0.461906E+01
             0.909910E+03             0.133217E-01             0.177621E+02            -0.378601E-01             0.461906E+01
             0.910911E+03             0.133363E-01             0.177672E+02            -0.379165E-01             0.461907E+01
             0.911912E+03             0.133510E-01             0.177723E+02            -0.379728E-01             0.461907E+01
             0.912913E+03             0.133656E-01             0.177773E+02            -0.380291E-01             0.461908E+01
             0.913914E+03             0.133803E-01             0.177824E+02            -0.380855E-01             0.461908E+01
             0.914915E+03             0.133949E-01             0.177875E+02            -0.381419E-01             0.461909E+01
             0.915916E+03             0.134095E-01             0.177925E+02            -0.381983E-01             0.461909E+01
             0.916917E+03             0.134242E-01             0.177975E+02            -0.382547E-01             0.461910E+01
             0.917918E+03             0.134388E-01             0.178026E+02            -0.383111E-01             0.461910E+01
             0.918919E+03             0.134535E-01             0.178076E+02            -0.383675E-01             0.461910E+01
             0.919920E+03             0.134681E-01             0.178127E+02            -0.384240E-01             0.461911E+01
             0.920921E+03             0.134827E-01             0.178177E+02            -0.384805E-01             0.461911E+01
             0.921922E+03             0.134974E-01             0.178227E+02            -0.385370E-01             0.461912E+01
             0.922923E+03             0.135120E-01             0.178277E+02            -0.385935E-01             0.461912E+01
             0.923924E+03             0.135267E-01             0.178327E+02            -0.386500E-01             0.461913E+01
             0.924925E+03             0.135413E-01             0.178377E+02            -0.387065E-01             0.461913E+01
             0.925926E+03             0.135560E-01             0.178427E+02            -0.387631E-01             0.461913E+01
             0.926927E+03             0.135706E-01             0.178477E+02            -0.388197E-01             0.461914E+01
             0.927928E+03             0.135852E-01             0.178527E+02            -0.388762E-01             0.461914E+01
             0.928929E+03             0.135999E-01             0.178577E+02            -0.389328E-01             0.461915E+01
             0.929930E+03             0.136145E-01             0.178626E+02            -0.389895E-01             0.461915E+01
             0.930931E+03             0.136292E-01             0.178676E+02            -0.390461E-01             0.461916E+01
             0.931932E+03             0.136438E-01             0.178726E+02            -0.391027E-01             0.461916E+01
             0.932933E+03             0.136585E-01             0.178775E+02            -0.391594E-01             0.461916E+01
             0.933934E+03             0.136731E-01             0.178825E+02            -0.392161E-01             0.461917E+01
             0.934935E+03             0.136877E-01             0.178874E+02            -0.392728E-01             0.461917E+01
             0.935936E+03             0.137024E-01             0.178924E+02            -0.393295E-01             0.461918E+01
             0.936937E+03             0.137170E-01             0.178973E+02            -0.393862E-01             0.461918E+01
             0.937938E+03             0.137317E-01             0.179023E+02            -0.394430E-01             0.461918E+01
             0.938939E+03             0.137463E-01             0.179072E+02            -0.394997E-01             0.461919E+01
             0.939940E+03             0.137610E-01             0.179121E+02            -0.395565E-01             0.461919E+01
             0.940941E+03             0.137756E-01             0.179170E+02            -0.396133E-01             0.461920E+01
             0.941942E+03             0.137902E-01             0.179219E+02            -0.396701E-01             0.461920E+01
             0.942943E+03             0.138049E-01             0.179268E+02            -0.397269E-01             0.461920E+01
             0.943944E+03             0.138195E-01             0.179317E+02            -0.397837E-01             0.461921E+01
             0.944945E+03             0.138342E-01             0.179366E+02            -0.398406E-01             0.461921E+01
             0.945946E+03             0.138488E-01             0.179415E+02            -0.398975E-01             0.461922E+01
             0.946947E+03             0.138635E-01             0.179464E+02            -0.399543E-01             0.461922E+01
             0.947948E+03             0.138781E-01             0.179513E+02            -0.400112E-01             0.461922E+01
             0.948949E+03             0.138927E-01             0.179562E+02            -0.400681E-01             0.461923E+01
             0.949950E+03             0.139074E-01             0.179610E+02            -0.401251E-01             0.461923E+01
             0.950951E+03             0.139220E-01             0.179659E+02            -0.401820E-01             0.461924E+01
             0.951952E+03             0.139367E-01             0.179708E+02            -0.402390E-01             0.461924E+01
             0.952953E+03             0.139513E-01             0.179756E+02            -0.402960E-01             0.461924E+01
             0.953954E+03             0.139660E-01             0.179805E+02            -0.403529E-01             0.461925E+01
             0.954955E+03             0.139806E-01             0.179853E+02            -0.404099E-01             0.461925E+01
             0.955956E+03             0.139952E-01             0.179901E+02            -0.404670E-01             0.461926E+01
             0.956957E+03             0.140099E-01             0.179950E+02            -0.405240E-01             0.461926E+01
             0.957958E+03             0.140245E-01             0.179998E+02            -0.405811E-01             0.461926E+01
             0.958959E+03             0.140392E-01             0.180046E+02            -0.406381E-01             0.461927E+01
             0.959960E+03             0.140538E-01             0.180095E+02            -0.406952E-01             0.461927E+01
             0.960961E+03             0.140685E-01             0.180143E+02            -0.407523E-01             0.461928E+01
             0.961962E+03             0.140831E-01             0.180191E+02            -0.408094E-01             0.461928E+01
             0.962963E+03             0.140977E-01             0.180239E+02            -0.408665E-01             0.461928E+01
             0.963964E+03             0.141124E-01             0.180287E+02            -0.409237E-01             0.461929E+01
             0.964965E+03             0.141270E-01             0.180335E+02            -0.409808E-01             0.461929E+01
             0.965966E+03             0.141417E-01             0.180383E+02            -0.410380E-01             0.461929E+01
             0.966967E+03             0.141563E-01             0.180430E+02            -0.410952E-01             0.461930E+01
             0.967968E+03             0.141710E-01             0.180478E+02            -0.411524E-01             0.461930E+01
             0.968969E+03             0.141856E-01             0.180526E+02            -0.412096E-01             0.461931E+01
             0.969970E+03             0.142002E-01             0.180574E+02            -0.412669E-01             0.461931E+01
             0.970971E+03             0.142149E-01             0.180621E+02            -0.413241E-01             0.461931E+01
             0.971972E+03             0.142295E-01             0.180669E+02            -0.413814E-01             0.461932E+01
             0.972973E+03             0.142442E-01             0.180716E+02            -0.414387E-01             0.461932E+01
             0.973974E+03             0.142588E-01             0.180764E+02            -0.414960E-01             0.461932E+01
             0.974975E+03             0.142735E-01             0.180811E+02            -0.415533E-01             0.461933E+01
             0.975976E+03             0.142881E-01             0.180859E+02            -0.416106E-01             0.461933E+01
             0.976977E+03             0.143028E-01             0.180906E+02            -0.416679E-01             0.461933E+01
             0.977978E+03             0.143174E-01             0.180954E+02            -0.417253E-01             0.461934E+01
             0.978979E+03             0.143320E-01             0.181001E+02            -0.417826E-01             0.461934E+01
             0.979980E+03             0.143467E-01             0.181048E+02            -0.418400E-01             0.461935E+01
             0.980981E+03             0.143613E-01             0.181095E+02            -0.418974E-01             0.461935E+01
             0.981982E+03             0.143760E-01             0.181142E+02            -0.419548E-01             0.461935E+01
             0.982983E+03             0.143906E-01             0.181189E+02            -0.420123E-01             0.461936E+01
             0.983984E+03             0.144053E-01             0.181236E+02            -0.420697E-01             0.461936E+01
             0.984985E+03             0.144199E-01             0.181283E+02            -0.421272E-01             0.461936E+01
             0.985986E+03             0.144345E-01             0.181330E+02            -0.421847E-01             0.461937E+01
             0.986987E+03             0.144492E-01             0.181377E+02            -0.422421E-01             0.461937E+01
             0.987988E+03             0.144638E-01             0.181424E+02            -0.422996E-01             0.461937E+01
             0.988989E+03             0.144785E-01             0.181471E+02            -0.423572E-01             0.461938E+01
             0.989990E+03             0.144931E-01             0.181517E+02            -0.424147E-01             0.461938E+01
             0.990991E+03             0.145078E-01             0.181564E+02            -0.424722E-01             0.461938E+01
             0.991992E+03             0.145224E-01             0.181611E+02            -0.425298E-01             0.461939E+01
             0.992993E+03             0.145370E-01             0.181657E+02            -0.425874E-01             0.461939E+01
             0.993994E+03             0.145517E-01             0.181704E+02            -0.426450E-01             0.461939E+01
             0.994995E+03             0.145663E-01             0.181750E+02            -0.427026E-01             0.461940E+01
             0.995996E+03             0.145810E-01             0.181797E+02            -0.427602E-01             0.461940E+01
             0.996997E+03             0.145956E-01             0.181843E+02            -0.428178E-01             0.461941E+01
             0.997998E+03             0.146103E-01             0.181890E+02            -0.428755E-01             0.461941E+01
             0.998999E+03             0.146249E-01             0.181936E+02            -0.429332E-01             0.461941E+01
             0.100000E+04             0.146395E-01             0.181982E+02            -0.429908E-01             0.461942E+01
=============================================================================================================================


    =====================
     CALCULATION RESULTS
    =====================

Energy (hartree)            -0.04198742

Gradients (hartree/bohr)
  Index   Atom            d/dx            d/dy            d/dz
      1     Og    0.0000000000   -0.0000000000   -0.0000000000
      2     Og   -0.0000000000    0.0000000000    0.0000000000

 Stress Tensor (hartree/bohr^3)
  Index               1               2               3
      1    0.0000004007   -0.0000000000   -0.0000000000
      2   -0.0000000000    0.0000004007    0.0000000000
      3   -0.0000000000    0.0000000000    0.0000008912
 

Phonon information present.

--------------
Atomic charges
--------------
  Index   Atom    Charge
      1     Og    0.0000
      2     Og    0.0000




 =================
 Timing Statistics
 =================
  
 Total Used :                     CPU=    63032.69      System=      541.18     Elapsed=    64819.70

 Calls  Section                     ( Mean, Percentage )
 ---------------------------------------------------------------------------------------------------
    19  ><      ................      0.00    0.00             0.00    0.00             0.00    0.00
    22  GETINP  ................      5.84    0.20             0.58    2.36             6.47    0.22
    17  DIRAC   ................      1.01    0.03             0.00    0.00             1.02    0.03
    17  SLTORB  ................      0.02    0.00             0.00    0.00             0.02    0.00
    17  FITRAD  ................      0.00    0.00             0.00    0.00             0.00    0.00
    17  RADIAL  ................      0.04    0.00             0.01    0.02             0.05    0.00
    17  POINTS  ................      1.00    0.03             0.06    0.17             1.08    0.03
    17  CELLS   ................      0.12    0.00             0.00    0.00             0.12    0.00
    17  ELSTAT  ................      0.10    0.00             0.00    0.00             0.11    0.00
    17  ATMFNC  ................      0.31    0.01             0.07    0.22             0.39    0.01
    17  NUMGRD  ................    270.19    7.29             1.47    4.60           276.65    7.26
   162  RHOPMD  ................     82.48   21.20             0.37   11.13            84.37   21.09
   162  RHOFIT  ................     40.28   10.35             0.41   12.24            41.36   10.34
   162  PMATPROPS ..............      0.00    0.00             0.00    0.00             0.00    0.00
   162  RHOPOT  ................      0.11    0.03             0.01    0.22             0.12    0.03
   162  SCFEXTRA1 ..............      0.00    0.00             0.00    0.00             0.00    0.00
   324  EIGSYS  ................     83.10   42.71             0.73   43.83            85.44   42.70
   162  FERMI   ................      0.52    0.13             0.00    0.07             0.52    0.13
   145  PMATRX  ................      3.32    0.76             0.36    9.60             3.73    0.83
   145  GUESSRHO ...............      1.66    0.38             0.29    7.75             1.98    0.44
    17  ENERGY  ................     87.99    2.37             0.49    1.55            89.69    2.35
     8  GRADIENTS ..............   1138.86   14.45             4.18    6.18          1174.35   14.49
     1  CHARGE  ................      0.01    0.00             0.00    0.00             0.01    0.00
     1  CM5CHARGES .............      0.01    0.00             0.00    0.00             0.01    0.00
     1  HIRSH   ................      0.00    0.00             0.00    0.00             0.00    0.00
     1  DOS     ................     24.51    0.04             0.18    0.03            24.73    0.04

AMS application finished. Exiting.
NORMAL TERMINATION
     Total cpu time:   63037.13
  Total system time:     542.24
 Total elapsed time:   64843.71
