 argument  1 = /lustre/ukt/milias/work/projects/open-collection/theoretical_chemistry/projects/adsorbate_on_surface/on_quartz/quartz/nwchem/Quartz-G_molecular_slab_153atoms/ecp/Rn_on_quartz/RnQ.geopt_ecp_revpbe-d3bj.nw



============================== echo of input deck ==============================
echo

start molecule

memory total 180 gb

print low

title "Rn@Quartz ecp"
charge 0

geometry units angstroms print xyz autosym
  load format xyz RnQgeom.xyz
end

basis
 * library crenbl_ecp
end

ecp
  Si library crenbl_ecp
  Rn library crenbl_ecp
end

dft
  xc revpbe cpbe96
  disp vdw 4
  maxiter 100
end

driver
  maxiter 999
  xyz RnQgeomconv
end

task dft optimize

#task dft frequencies

================================================================================


                                         
                                         


             Northwest Computational Chemistry Package (NWChem) 7.2.0
             --------------------------------------------------------


                    Environmental Molecular Sciences Laboratory
                       Pacific Northwest National Laboratory
                                Richland, WA 99352

                              Copyright (c) 1994-2022
                       Pacific Northwest National Laboratory
                            Battelle Memorial Institute

             NWChem is an open-source computational chemistry package
                        distributed under the terms of the
                      Educational Community License (ECL) 2.0
             A copy of the license is included with this distribution
                              in the LICENSE.TXT file

                                  ACKNOWLEDGMENT
                                  --------------

            This software and its documentation were developed at the
            EMSL at Pacific Northwest National Laboratory, a multiprogram
            national laboratory, operated for the U.S. Department of Energy
            by Battelle under Contract Number DE-AC05-76RL01830. Support
            for this work was provided by the Department of Energy Office
            of Biological and Environmental Research, Office of Basic
            Energy Sciences, and the Office of Advanced Scientific Computing.


           Job information
           ---------------

    hostname        = lxbk0889
    program         = /lustre/ukt/milias/work/software/nwchem/nwchem-7.2.0_gnu_openmpi_openblas/bin/LINUX64/nwchem
    date            = Sat Aug 12 16:49:28 2023

    compiled        = Sun_Jul_02_11:55:06_2023
    source          = /lustre/ukt/milias/work/software/nwchem/nwchem-7.2.0_gnu_openmpi_openblas
    nwchem branch   = 7.2.0
    nwchem revision = v7.2.0-beta1-192-gd0d141fdfb
    ga revision     = 5.8.0
    use scalapack   = F
    input           = /lustre/ukt/milias/work/projects/open-collection/theoretical_chemistry/projects/adsorbate_on_surface/on_quartz/quartz/nwchem/Quartz-G_molecular_slab_153atoms/ecp/Rn_on_quartz/RnQ.geopt_ecp_revpbe-d3bj.nw
    prefix          = molecule.
    data base       = ./molecule.db
    status          = startup
    nproc           =      140
    time left       =     -1s



           Memory information
           ------------------

    heap     = 6039797754 doubles =  46080.0 Mbytes
    stack    = 6039797759 doubles =  46080.0 Mbytes
    global   = ********** doubles =  92160.0 Mbytes (distinct from heap & stack)
    total    = ********** doubles = 184320.0 Mbytes
    verify   = yes
    hardfail = no 


           Directory information
           ---------------------

  0 permanent = .
  0 scratch   = .




                                NWChem Input Module
                                -------------------


                                   Rn@Quartz ecp
                                   -------------

 Scaling coordinates for geometry "geometry" by  1.889725989
 (inverse scale =  0.529177249)


          ------
          auto-z
          ------
  autoz: The atoms group into disjoint clusters
 cluster   1:    1    2    3    4    5    6    7    8    9   10   11
                12   13   14   15   16   17   18   19   20   21   22
                23   24   25   26   27   28   29   30   31   32   33
                34   35   36   37   38   39   40   41   42   43   44
                45   46   47   48   49   50   51   52   53   54   55
                56   57   58   59   60   61   62   63   64   65   66
                67   68   69   70   71   72   73   74   75   76   77
                78   79   80   81   82   83   84   85   86   87   88
                89   90   91   92   93   94   95   96   97   98   99
               100  101  102  103  104  105  106  107  108  109  110
               111  112  113  114  115  116  117  118  119  120  121
               122  123  124  125  126  127  128  129  130  131  132
               133  134  135  136  137  138  139  140  141  142  143
               144  145  146  147  148  149  150  151  152  153
 cluster   2:  154
 Connecting clusters   1   2 via atoms  124  154 r = 3.68
  autoz: regenerating connections with new bonds
  no constraints, skipping    0.0000000000000000     
  no constraints, skipping    0.0000000000000000     


                             Geometry "geometry" -> ""
                             -------------------------

 Output coordinates in angstroms (scale by  1.889725989 to convert to a.u.)

  No.       Tag          Charge          X              Y              Z
 ---- ---------------- ---------- -------------- -------------- --------------
    1 O                    8.0000    -2.92834770     1.69301968    -5.04760996
    2 H                    1.0000     1.92828743    -5.77742331     0.17915586
    3 H                    1.0000    -5.89908558     9.54757478     1.41363986
    4 Si                  14.0000     0.84565724    -8.62426013     3.31464779
    5 Si                  14.0000    -0.29744433    -7.68441254    -1.00221745
    6 Si                  14.0000    -0.90925533    -4.08496385    -5.22346702
    7 H                    1.0000    -1.44815817     6.24620088    -1.03435381
    8 Si                  14.0000     2.98721226    -4.88454232     2.26986587
    9 Si                  14.0000     0.06335494    -2.42041223    -1.07811412
   10 Si                  14.0000    -2.91013300     0.62680455    -3.78442817
   11 H                    1.0000     2.72437496     3.28822154    -2.04105509
   12 Si                  14.0000     4.85250355    -0.46902725    -0.13632317
   13 Si                  14.0000     0.61784914     2.41543675    -0.46224726
   14 Si                  14.0000    -3.83415860     4.72342700    -0.68066738
   15 H                    1.0000     1.55102558    -7.83085158     0.75844150
   16 Si                  14.0000     4.85692104     4.61556520    -2.03742310
   17 Si                  14.0000     0.81716668     7.15755885    -0.49637847
   18 Si                  14.0000    -3.67497238     8.40109707     2.17730813
   19 O                    8.0000     3.38194035    -0.60270444    -0.93627001
   20 O                    8.0000    -3.68429784    -5.06015069     3.49696690
   21 O                    8.0000    -6.09292579    -4.77080392    -1.80073851
   22 O                    8.0000     1.67793859     6.37690845    -1.67479424
   23 O                    8.0000    -0.48006477     2.70963133    -1.69302274
   24 O                    8.0000     0.60293444    -1.91086719     4.86740636
   25 O                    8.0000    -4.74141404    -0.99267600     1.97394836
   26 O                    8.0000    -2.60220151     8.25178610     0.93132024
   27 O                    8.0000    -4.62360631     6.05031004    -1.26997177
   28 O                    8.0000     3.38533997     2.39411701     3.85197057
   29 O                    8.0000    -1.10167166     2.46045829     3.99169009
   30 H                    1.0000     2.70602898    -1.30010143    -1.05528770
   31 H                    1.0000     6.23594682     4.33479041    -4.23822216
   32 O                    8.0000    -2.26022138     4.67601025    -1.23118049
   33 O                    8.0000    -0.01493983    -1.82536024    -2.63095770
   34 O                    8.0000     0.62614670    -5.05094708     5.84850086
   35 O                    8.0000     5.32228399     1.10710312     0.02949125
   36 Si                  14.0000     4.05452731     3.66260009     3.02806427
   37 Si                  14.0000    -1.01909327     4.13949006     3.93617792
   38 O                    8.0000    -2.15750916    -4.76890436     1.25451656
   39 O                    8.0000    -4.37532871    -3.11909714    -3.12449238
   40 H                    1.0000    -4.98138170     6.88698979    -1.55585442
   41 H                    1.0000     3.03484271    -7.67688070     2.40527994
   42 Si                  14.0000     0.42934475    -5.54965669     4.27707549
   43 O                    8.0000     5.50209241     3.67039991    -0.82013850
   44 O                    8.0000     1.16779847     6.31001781     0.92035917
   45 O                    8.0000     3.29079342     4.05587061    -2.23597875
   46 Si                  14.0000    -1.98430202    -4.91641515    -0.39169192
   47 O                    8.0000     0.16400672     4.60120674     2.87049489
   48 H                    1.0000     2.19495050     5.66796434    -2.09044773
   49 H                    1.0000    -5.99949368     4.26012542     3.77243112
   50 Si                  14.0000    -3.75055527    -2.49836592    -4.53423159
   51 O                    8.0000     2.78054542     4.48754156     2.31475251
   52 O                    8.0000    -0.82364930     6.95194968    -0.75661073
   53 O                    8.0000    -1.30494949    -6.38941438    -0.76444219
   54 O                    8.0000    -3.83936881     4.79315682     0.98617750
   55 O                    8.0000     5.26065818    -1.72737215     3.95260983
   56 O                    8.0000    -5.09709052     9.11276985     1.68775309
   57 O                    8.0000    -2.36310698    -3.34635000    -4.91300541
   58 H                    1.0000     1.41445774   -10.52468430     5.00403118
   59 O                    8.0000     0.13697519    -0.54326891     2.55062920
   60 H                    1.0000    -2.92102517     2.34339230    -5.74512995
   61 H                    1.0000     2.60309957     0.99479943    -1.17988968
   62 O                    8.0000     4.80670918     6.20807704    -1.59147660
   63 O                    8.0000    -4.40953198     0.91554443     0.07381125
   64 H                    1.0000     5.39861045     5.26827313     4.58705319
   65 O                    8.0000     3.67589793    -3.39957656     2.46551172
   66 O                    8.0000     1.19502353     8.76128142    -0.35403436
   67 H                    1.0000    -0.51162254     5.10220528     6.30394574
   68 O                    8.0000    -3.03581380     9.26295865     3.44627458
   69 H                    1.0000    -5.48786644    -2.65169796    -6.47484089
   70 H                    1.0000    -7.41803457     1.22119162    -1.79393703
   71 H                    1.0000     8.43152731     2.61334520     0.87715408
   72 H                    1.0000    -4.43954582    -5.51455017     3.86054007
   73 H                    1.0000    -6.84496861    -5.34781451    -1.89932172
   74 O                    8.0000     1.73260866    -5.08108826     3.34024803
   75 O                    8.0000    -0.89305294    -3.75875075    -0.88471012
   76 H                    1.0000     0.33537293    -2.70505403     5.33023681
   77 H                    1.0000    -4.96409793    -1.79172421     2.45096622
   78 O                    8.0000    -5.15806815     4.37875643     3.33519411
   79 O                    8.0000    -2.48298328     4.65765483     3.34314599
   80 O                    8.0000     5.73988020     4.42154127    -3.42936736
   81 O                    8.0000     1.03973017    -7.52461253    -0.02380809
   82 H                    1.0000     5.02186017    -6.39149124     2.75166059
   83 O                    8.0000    -3.32078708    -0.91242500    -4.26722019
   84 O                    8.0000    -2.40259541    -2.70916276     2.97542125
   85 O                    8.0000    -5.07045367    -2.56080210    -0.53883025
   86 O                    8.0000    -0.59599779    -5.26397192    -4.11162699
   87 H                    1.0000     2.78016604     1.73552538     4.22609672
   88 O                    8.0000     1.12953314     0.80432813     4.58564877
   89 O                    8.0000    -4.22700380     1.62578026     2.67859704
   90 H                    1.0000     0.08775707    -2.09461334    -3.56995529
   91 O                    8.0000    -0.96781106    -4.92102562     3.65456371
   92 O                    8.0000     4.91395385     4.66965289     4.02638033
   93 O                    8.0000    -0.71657239     4.73495669     5.44819377
   94 O                    8.0000     4.13657962    -6.08442457     2.55779709
   95 O                    8.0000    -3.44360577    -4.60938141    -1.10435753
   96 H                    1.0000    -1.59977904     1.67595546     3.75183759
   97 O                    8.0000     5.03785461     3.12628006     1.79096434
   98 O                    8.0000     1.64384079    -2.83297431    -0.71426960
   99 H                    1.0000    -0.86009171     2.11118196    -2.37696081
  100 H                    1.0000     0.77366442    -4.92009645     6.78282028
  101 O                    8.0000    -4.84670304    -2.60795594    -5.77071619
  102 H                    1.0000    -1.94641954     7.94190621     0.27488809
  103 O                    8.0000     4.57711784    -1.11649483     1.37668084
  104 O                    8.0000     6.01400287    -1.34267785    -0.93476004
  105 H                    1.0000     5.92538231    -1.55949026     4.61574178
  106 Si                  14.0000     5.85946118     2.64010433     0.43146756
  107 O                    8.0000    -0.07464588     1.25520437     0.51605552
  108 O                    8.0000    -0.46283608    -1.29158271     0.01447929
  109 O                    8.0000     2.66953531    -1.10980565     3.34026419
  110 Si                  14.0000     1.29701061     4.84418171     1.67322217
  111 H                    1.0000    -0.46339520    -5.95698072    -3.45767345
  112 H                    1.0000    -4.51309644     2.46594109     3.06391850
  113 H                    1.0000    -2.31488082    -1.76008413     2.87880898
  114 Si                  14.0000    -3.87573939     5.17430496     2.60248269
  115 O                    8.0000     0.95768565     3.72427875     0.47354370
  116 O                    8.0000     1.23866296    -9.82156417     4.38400152
  117 O                    8.0000    -1.37578305     0.53237707    -3.11357616
  118 H                    1.0000    -1.52508475     4.06050946    -1.47520828
  119 O                    8.0000    -4.55155970     3.28456232    -1.12070503
  120 H                    1.0000     6.69753948    -1.80369774    -1.41335793
  121 H                    1.0000     0.56035699    -7.95533156    -3.44254378
  122 Si                  14.0000     4.08099638    -1.80423422     2.79776760
  123 H                    1.0000     2.14470229    -3.53801432    -0.25769079
  124 H                    1.0000     1.01288338    -2.39969065    -5.51989141
  125 O                    8.0000    -0.31996680    -9.08882182     2.24324350
  126 Si                  14.0000    -0.68676307    -0.12749717     1.17472414
  127 O                    8.0000    -2.29987567     0.05608933     1.56768210
  128 O                    8.0000     2.18965592    -8.15557238     2.39530432
  129 O                    8.0000    -1.09157489    -9.10868522    -0.61686461
  130 Si                  14.0000    -4.89222390     1.67170538    -1.33732474
  131 H                    1.0000    -0.73787437    -0.16926532    -2.86346168
  132 O                    8.0000     7.49296209     2.59313052     0.71341180
  133 O                    8.0000     2.38728531    -5.11223794     0.72356168
  134 O                    8.0000     0.15538935    -7.72156714    -2.60856083
  135 O                    8.0000    -6.49781661     1.39581676    -1.61576422
  136 O                    8.0000     0.43168805    -7.21077999     4.10892752
  137 O                    8.0000    -0.88703625    -4.70307603    -6.76523305
  138 O                    8.0000     0.28149418    -2.88556755    -5.13661691
  139 Si                  14.0000    -2.32388968    -4.35622056     2.86277887
  140 Si                  14.0000     1.14801600    -0.70462219     3.87565922
  141 H                    1.0000    -0.82395478    -9.22886721     1.43581995
  142 H                    1.0000    -1.63234614    -9.89145842    -0.71170374
  143 Si                  14.0000    -4.78884149    -3.76127708    -1.64272863
  144 Si                  14.0000    -3.94188218     0.41834612     1.58460947
  145 H                    1.0000    -0.94136307    -5.06608282    -7.64528831
  146 O                    8.0000    -3.99779047     6.82382304     2.68224939
  147 O                    8.0000     1.99848358     1.76931600    -1.13269283
  148 H                    1.0000    -5.10245693    -1.88134160     0.14331101
  149 O                    8.0000    -3.96435272     1.12086110    -2.59969223
  150 H                    1.0000     0.54236566     1.57377153     4.67209170
  151 H                    1.0000    -2.62020786     9.73786901     4.15989917
  152 H                    1.0000     1.32894829     9.69911069    -0.25020406
  153 H                    1.0000     4.56172186     7.09002701    -1.32199285
  154 Rn                  86.0000     2.77242657     0.82730456    -5.31059531

      Atomic Mass 
      ----------- 

      O                 15.994910
      H                  1.007825
      Si                27.976930
      Rn               222.017500


 Effective nuclear repulsion energy (a.u.)   49030.4250246255

            Nuclear Dipole moment (a.u.) 
            ----------------------------
        X                 Y               Z
 ---------------- ---------------- ----------------
     0.0000000000     0.0000000000     0.0000000000



                                Z-matrix (autoz)
                                -------- 

 Units are Angstrom for bonds and degrees for angles

      Type          Name      I     J     K     L     M      Value
      ----------- --------  ----- ----- ----- ----- ----- ----------
    1 Stretch                  1    10                       1.65311
    2 Stretch                  1    60                       0.95371
    3 Stretch                  2   133                       0.97444
    4 Stretch                  3    56                       0.95257
    5 Stretch                  4   116                       1.65273
    6 Stretch                  4   125                       1.64997
    7 Stretch                  4   128                       1.69446
    8 Stretch                  4   136                       1.67337
    9 Stretch                  5    53                       1.65790
   10 Stretch                  5    81                       1.66459
   11 Stretch                  5   129                       1.67562
   12 Stretch                  5   134                       1.66936
   13 Stretch                  6    57                       1.66001
   14 Stretch                  6    86                       1.65057
   15 Stretch                  6   137                       1.66120
   16 Stretch                  6   138                       1.69233
   17 Stretch                  7    52                       0.98246
   18 Stretch                  8    65                       1.64854
   19 Stretch                  8    74                       1.66084
   20 Stretch                  8    94                       1.68632
   21 Stretch                  8   133                       1.67416
   22 Stretch                  9    33                       1.66479
   23 Stretch                  9    75                       1.65628
   24 Stretch                  9    98                       1.67348
   25 Stretch                  9   108                       1.65677
   26 Stretch                 10    83                       1.66462
   27 Stretch                 10   117                       1.67726
   28 Stretch                 10   149                       1.66104
   29 Stretch                 11    45                       0.97371
   30 Stretch                 12    19                       1.67939
   31 Stretch                 12    35                       1.65299
   32 Stretch                 12   103                       1.66860
   33 Stretch                 12   104                       1.65827
   34 Stretch                 13    23                       1.67534
   35 Stretch                 13   107                       1.66816
   36 Stretch                 13   115                       1.64446
   37 Stretch                 13   147                       1.66527
   38 Stretch                 14    27                       1.65261
   39 Stretch                 14    32                       1.66811
   40 Stretch                 14    54                       1.66831
   41 Stretch                 14   119                       1.66692
   42 Stretch                 15    81                       0.98342
   43 Stretch                 16    43                       1.67074
   44 Stretch                 16    45                       1.67494
   45 Stretch                 16    62                       1.65453
   46 Stretch                 16    80                       1.65975
   47 Stretch                 17    22                       1.65499
   48 Stretch                 17    44                       1.68772
   49 Stretch                 17    52                       1.67400
   50 Stretch                 17    66                       1.65377
   51 Stretch                 18    26                       1.65094
   52 Stretch                 18    56                       1.66390
   53 Stretch                 18    68                       1.66181
   54 Stretch                 18   146                       1.68730
   55 Stretch                 19    30                       0.97846
   56 Stretch                 20    72                       0.95345
   57 Stretch                 20   139                       1.65784
   58 Stretch                 21    73                       0.95301
   59 Stretch                 21   143                       1.65673
   60 Stretch                 22    48                       0.97091
   61 Stretch                 23    99                       0.98506
   62 Stretch                 24    76                       0.95736
   63 Stretch                 24   140                       1.65400
   64 Stretch                 25    77                       0.95688
   65 Stretch                 25   144                       1.66788
   66 Stretch                 26   102                       0.97825
   67 Stretch                 27    40                       0.95382
   68 Stretch                 28    36                       1.65399
   69 Stretch                 28    87                       0.96951
   70 Stretch                 29    37                       1.68198
   71 Stretch                 29    96                       0.95973
   72 Stretch                 31    80                       0.95281
   73 Stretch                 32   118                       0.98935
   74 Stretch                 33    90                       0.98222
   75 Stretch                 34    42                       1.66037
   76 Stretch                 34   100                       0.95490
   77 Stretch                 35   106                       1.67339
   78 Stretch                 36    51                       1.67701
   79 Stretch                 36    92                       1.65813
   80 Stretch                 36    97                       1.66883
   81 Stretch                 37    47                       1.65789
   82 Stretch                 37    79                       1.66227
   83 Stretch                 37    93                       1.65296
   84 Stretch                 38    46                       1.66186
   85 Stretch                 38   139                       1.66868
   86 Stretch                 39    50                       1.66223
   87 Stretch                 39   143                       1.66704
   88 Stretch                 41   128                       0.97138
   89 Stretch                 42    74                       1.67203
   90 Stretch                 42    91                       1.65371
   91 Stretch                 42   136                       1.66961
   92 Stretch                 43   106                       1.66004
   93 Stretch                 44   110                       1.65293
   94 Stretch                 46    53                       1.66439
   95 Stretch                 46    75                       1.66556
   96 Stretch                 46    95                       1.65279
   97 Stretch                 47   110                       1.66619
   98 Stretch                 49    78                       0.95564
   99 Stretch                 50    57                       1.66960
  100 Stretch                 50    83                       1.66469
  101 Stretch                 50   101                       1.65603
  102 Stretch                 51   110                       1.65518
  103 Stretch                 54   114                       1.66104
  104 Stretch                 55   105                       0.95383
  105 Stretch                 55   122                       1.65263
  106 Stretch                 58   116                       0.95379
  107 Stretch                 59   126                       1.65666
  108 Stretch                 59   140                       1.67450
  109 Stretch                 61   147                       0.98370
  110 Stretch                 62   153                       0.95419
  111 Stretch                 63   130                       1.67215
  112 Stretch                 63   144                       1.65783
  113 Stretch                 64    92                       0.95268
  114 Stretch                 65   122                       1.67917
  115 Stretch                 66   152                       0.95302
  116 Stretch                 67    93                       0.95351
  117 Stretch                 68   151                       0.95264
  118 Stretch                 69   101                       0.95331
  119 Stretch                 70   135                       0.95344
  120 Stretch                 71   132                       0.95296
  121 Stretch                 78   114                       1.67754
  122 Stretch                 79   114                       1.65990
  123 Stretch                 82    94                       0.95687
  124 Stretch                 84   113                       0.95801
  125 Stretch                 84   139                       1.65278
  126 Stretch                 85   143                       1.65500
  127 Stretch                 85   148                       0.96333
  128 Stretch                 86   111                       0.96203
  129 Stretch                 88   140                       1.66774
  130 Stretch                 88   150                       0.97174
  131 Stretch                 89   112                       0.96757
  132 Stretch                 89   144                       1.65409
  133 Stretch                 91   139                       1.66880
  134 Stretch                 95   143                       1.67892
  135 Stretch                 97   106                       1.66122
  136 Stretch                 98   123                       0.97796
  137 Stretch                103   122                       1.65487
  138 Stretch                104   120                       0.95332
  139 Stretch                106   132                       1.65832
  140 Stretch                107   126                       1.64936
  141 Stretch                108   126                       1.65874
  142 Stretch                109   122                       1.66396
  143 Stretch                109   140                       1.66308
  144 Stretch                110   115                       1.67587
  145 Stretch                114   146                       1.65595
  146 Stretch                117   131                       0.98071
  147 Stretch                119   130                       1.66261
  148 Stretch                121   134                       0.95612
  149 Stretch                124   154                       3.68148
  150 Stretch                124   138                       0.95807
  151 Stretch                125   141                       0.96205
  152 Stretch                126   127                       1.67040
  153 Stretch                127   144                       1.68158
  154 Stretch                129   142                       0.95612
  155 Stretch                130   135                       1.65275
  156 Stretch                130   149                       1.66071
  157 Stretch                137   145                       0.95353
  158 Bend                     1    10    83               111.84232
  159 Bend                     1    10   117               110.61077
  160 Bend                     1    10   149               110.25365
  161 Bend                     2   133     8               141.04653
  162 Bend                     3    18    26               111.82341
  163 Bend                     3    18    68               108.82031
  164 Bend                     3    18   146               109.53348
  165 Bend                     4   125   141               162.95008
  166 Bend                     4   128    41               145.17127
  167 Bend                     4   136    42               152.69087
  168 Bend                     5    53    46               166.27675
  169 Bend                     5    81    15               148.79244
  170 Bend                     5   129   142               160.24282
  171 Bend                     5   134   121               163.67039
  172 Bend                     6    50    39               108.58168
  173 Bend                     6    50    83               105.49294
  174 Bend                     6    50   101               112.27821
  175 Bend                     6   138   124               151.16697
  176 Bend                     7    52    17               139.04584
  177 Bend                     8    65   122               168.54240
  178 Bend                     8    74    42               169.43937
  179 Bend                     8    94    82               153.31960
  180 Bend                     9    33    90               142.07420
  181 Bend                     9    75    46               167.04157
  182 Bend                     9    98   123               139.72281
  183 Bend                     9   108   126               169.20975
  184 Bend                    10    83    50               172.36695
  185 Bend                    10   117   131               137.50380
  186 Bend                    10   130    63               107.91189
  187 Bend                    10   130   119               106.21181
  188 Bend                    10   130   135               113.79827
  189 Bend                    11    45    16               141.59415
  190 Bend                    12    19    30               136.01887
  191 Bend                    12    35   106               171.43075
  192 Bend                    12   103   122               171.64549
  193 Bend                    13    23    99               131.01164
  194 Bend                    13   107   126               166.24708
  195 Bend                    13   115   110               168.83342
  196 Bend                    13   147    61               146.55198
  197 Bend                    14    27    40               172.03811
  198 Bend                    14    32   118               143.14784
  199 Bend                    14    54   114               169.07464
  200 Bend                    14   119   130               163.72558
  201 Bend                    16    43   106               169.59930
  202 Bend                    16    62   153               166.79468
  203 Bend                    17    22    48               157.85101
  204 Bend                    17    44   110               147.55631
  205 Bend                    18    26   102               166.08994
  206 Bend                    18   146   114               154.50810
  207 Bend                    19    12    35               111.87241
  208 Bend                    19    12   103               104.86307
  209 Bend                    19    12   104               110.00179
  210 Bend                    20   139    38               110.21219
  211 Bend                    20   139    84               110.97677
  212 Bend                    20   139    91               109.97504
  213 Bend                    21   143    39               110.19484
  214 Bend                    21   143    85               111.81896
  215 Bend                    21   143    95               110.69973
  216 Bend                    22    17    44               104.64208
  217 Bend                    22    17    52               109.94817
  218 Bend                    22    17    66               113.57007
  219 Bend                    23    13   107               106.31525
  220 Bend                    23    13   115               114.43851
  221 Bend                    23    13   147               108.40231
  222 Bend                    24   140    59               110.22831
  223 Bend                    24   140    88               113.63677
  224 Bend                    24   140   109               108.47273
  225 Bend                    25   144    63               109.34337
  226 Bend                    25   144    89               112.36671
  227 Bend                    25   144   127               106.74958
  228 Bend                    26    18    56               111.83905
  229 Bend                    26    18    68               111.91846
  230 Bend                    26    18   146               105.40457
  231 Bend                    27    14    32               110.84671
  232 Bend                    27    14    54               108.73708
  233 Bend                    27    14   119               113.16192
  234 Bend                    28    36    51               106.36654
  235 Bend                    28    36    92               112.05986
  236 Bend                    28    36    97               111.17343
  237 Bend                    29    37    47               109.52755
  238 Bend                    29    37    79               106.24304
  239 Bend                    29    37    93               109.77981
  240 Bend                    31    16    43               110.43622
  241 Bend                    31    16    45               110.96610
  242 Bend                    31    16    62               110.27626
  243 Bend                    32    14    54               109.50365
  244 Bend                    32    14   119               107.12286
  245 Bend                    33     9    75               111.75138
  246 Bend                    33     9    98               109.59273
  247 Bend                    33     9   108               110.89482
  248 Bend                    34    42    74               110.71492
  249 Bend                    34    42    91               110.01298
  250 Bend                    34    42   136               113.20257
  251 Bend                    35    12   103               109.02219
  252 Bend                    35    12   104               110.58432
  253 Bend                    35   106    43               108.56347
  254 Bend                    35   106    97               107.81417
  255 Bend                    35   106   132               109.33545
  256 Bend                    36    28    87               164.96041
  257 Bend                    36    51   110               162.12790
  258 Bend                    36    97   106               172.81068
  259 Bend                    37    29    96               146.43097
  260 Bend                    37    47   110               171.02749
  261 Bend                    37   114    54               107.49991
  262 Bend                    37   114    78               109.55061
  263 Bend                    37   114   146               110.77797
  264 Bend                    38    46    53               110.05640
  265 Bend                    38    46    75               107.44634
  266 Bend                    38    46    95               108.57923
  267 Bend                    38   139    84               108.47487
  268 Bend                    38   139    91               107.01125
  269 Bend                    39    50    57               108.36595
  270 Bend                    39    50    83               108.46766
  271 Bend                    39    50   101               111.08403
  272 Bend                    39   143    85               110.83383
  273 Bend                    39   143    95               106.31204
  274 Bend                    42    34   100               170.23197
  275 Bend                    42    91   139               173.61964
  276 Bend                    43    16    45               104.97537
  277 Bend                    43    16    62               111.09115
  278 Bend                    43    16    80               109.84447
  279 Bend                    43   106    97               109.20268
  280 Bend                    43   106   132               110.96652
  281 Bend                    44    17    52               105.81014
  282 Bend                    44    17    66               111.54682
  283 Bend                    44   110    47               113.79415
  284 Bend                    44   110    51               115.95602
  285 Bend                    44   110   115               104.52090
  286 Bend                    45    16    62               108.97804
  287 Bend                    45    16    80               111.03522
  288 Bend                    46    38   139               170.77344
  289 Bend                    46    95   143               159.97680
  290 Bend                    47    37    79               108.19884
  291 Bend                    47    37    93               110.91937
  292 Bend                    47   110    51               107.43046
  293 Bend                    47   110   115               106.21587
  294 Bend                    49    78   114               158.71145
  295 Bend                    50    39   143               172.27808
  296 Bend                    50     6    86               111.29890
  297 Bend                    50     6   137               112.40785
  298 Bend                    50     6   138               104.61516
  299 Bend                    51    36    92               110.55324
  300 Bend                    51    36    97               106.88210
  301 Bend                    51   110   115               108.35770
  302 Bend                    52    17    66               110.88178
  303 Bend                    53     5    81               109.20107
  304 Bend                    53     5   129               110.05664
  305 Bend                    53     5   134               108.67719
  306 Bend                    53    46    75               106.34475
  307 Bend                    53    46    95               115.35485
  308 Bend                    54    14   119               107.36660
  309 Bend                    54   114    78               109.44693
  310 Bend                    54   114    79               110.14511
  311 Bend                    54   114   146               106.08478
  312 Bend                    55   122    65               110.77278
  313 Bend                    55   122   103               111.51520
  314 Bend                    55   122   109               110.99326
  315 Bend                    56    18    68               109.36424
  316 Bend                    56    18   146               108.92628
  317 Bend                    57     6    86               110.98132
  318 Bend                    57     6   137               110.53934
  319 Bend                    57     6   138               106.93529
  320 Bend                    57    50    83               107.80148
  321 Bend                    57    50   101               110.30716
  322 Bend                    58     4   125               111.70793
  323 Bend                    58     4   128               112.35654
  324 Bend                    58     4   136               111.24369
  325 Bend                    59   126   107               110.94863
  326 Bend                    59   126   108               109.73566
  327 Bend                    59   126   127               108.20255
  328 Bend                    59   140    88               104.06342
  329 Bend                    59   140   109               108.73105
  330 Bend                    60    10    83               112.94492
  331 Bend                    60    10   117               109.98898
  332 Bend                    60    10   149               109.75865
  333 Bend                    62    16    80               110.77521
  334 Bend                    63   130   119               105.63917
  335 Bend                    63   130   135               110.31112
  336 Bend                    63   130   149               109.28140
  337 Bend                    63   144    89               109.58332
  338 Bend                    63   144   127               109.32229
  339 Bend                    64    36    28               112.49089
  340 Bend                    64    36    51               110.03389
  341 Bend                    64    36    97               109.69311
  342 Bend                    65     8    74               110.22372
  343 Bend                    65     8    94               109.62965
  344 Bend                    65     8   133               112.44681
  345 Bend                    65   122   103               107.29229
  346 Bend                    65   122   109               104.85483
  347 Bend                    67    37    29               110.38726
  348 Bend                    67    37    47               110.01100
  349 Bend                    67    37    79               112.36443
  350 Bend                    68    18   146               109.26147
  351 Bend                    69    50    39               111.01268
  352 Bend                    69    50    57               110.77775
  353 Bend                    69    50    83               110.31522
  354 Bend                    70   130    63               110.45519
  355 Bend                    70   130   119               112.90002
  356 Bend                    70   130   149               110.54849
  357 Bend                    71   106    35               110.35904
  358 Bend                    71   106    43               110.31540
  359 Bend                    71   106    97               110.52254
  360 Bend                    72   139    38               109.84510
  361 Bend                    72   139    84               112.18394
  362 Bend                    72   139    91               109.09188
  363 Bend                    73   143    39               110.01279
  364 Bend                    73   143    85               111.86934
  365 Bend                    73   143    95               110.83728
  366 Bend                    74     8    94               108.70069
  367 Bend                    74     8   133               107.96727
  368 Bend                    74    42    91               109.94304
  369 Bend                    74    42   136               102.78493
  370 Bend                    75     9    98               108.70902
  371 Bend                    75     9   108               106.86684
  372 Bend                    75    46    95               108.76756
  373 Bend                    76    24   140               170.74150
  374 Bend                    77    25   144               159.12943
  375 Bend                    78   114    79               107.39061
  376 Bend                    78   114   146               113.26685
  377 Bend                    79    37    93               112.03783
  378 Bend                    79   114   146               110.51135
  379 Bend                    81     5   129               109.09514
  380 Bend                    81     5   134               110.47629
  381 Bend                    83    10   117               106.83536
  382 Bend                    83    10   149               108.98532
  383 Bend                    83    50   101               110.71319
  384 Bend                    84   139    91               110.09875
  385 Bend                    85   143    95               106.79020
  386 Bend                    86     6   137               110.90730
  387 Bend                    86     6   138               109.76347
  388 Bend                    88   140   109               111.56939
  389 Bend                    89   144   127               109.40423
  390 Bend                    91    42   136               109.96686
  391 Bend                    92    36    97               109.63914
  392 Bend                    94     8   133               107.76865
  393 Bend                    97   106   132               110.87505
  394 Bend                    98     9   108               108.93783
  395 Bend                   103    12   104               110.35016
  396 Bend                   103   122   109               111.15137
  397 Bend                   105    55   122               172.50912
  398 Bend                   107    13   115               107.79596
  399 Bend                   107    13   147               108.08462
  400 Bend                   107   126   108               105.00443
  401 Bend                   107   126   127               111.11270
  402 Bend                   108   126   127               111.84200
  403 Bend                   111     6    57               109.99806
  404 Bend                   111     6   137               111.00822
  405 Bend                   111     6   138               110.68173
  406 Bend                   112    89   144               161.47835
  407 Bend                   113    84   139               167.42630
  408 Bend                   114    37    29               106.39862
  409 Bend                   114    37    47               105.61361
  410 Bend                   114    37    93               114.38610
  411 Bend                   115    13   147               111.50501
  412 Bend                   116     4   125               112.59159
  413 Bend                   116     4   128               111.27339
  414 Bend                   116     4   136               111.32387
  415 Bend                   117    10   149               108.18371
  416 Bend                   119   130   135               112.51545
  417 Bend                   119   130   149               107.83781
  418 Bend                   120    12    19               110.19007
  419 Bend                   120    12    35               109.61290
  420 Bend                   120    12   103               111.21013
  421 Bend                   122   109   140               169.32266
  422 Bend                   125     4   128               106.61311
  423 Bend                   125     4   136               111.79460
  424 Bend                   126    59   140               168.99210
  425 Bend                   126   127   144               165.70133
  426 Bend                   128     4   136               102.71540
  427 Bend                   129     5   134               109.32560
  428 Bend                   130    63   144               170.43889
  429 Bend                   130    10     1               110.72406
  430 Bend                   130    10    83               110.96133
  431 Bend                   130    10   117               105.61806
  432 Bend                   135   130   149               111.06031
  433 Bend                   137     6   138               107.57334
  434 Bend                   138   124   154               141.87350
  435 Bend                   140    88   150               139.55200
  436 Bend                   143    85   148               171.72108
  437 Bend                   145     6    57               109.24571
  438 Bend                   145     6    86               111.00354
  439 Bend                   145     6   138               108.80176
  440 Bend                   151    18    26               110.88794
  441 Bend                   151    18    56               110.44875
  442 Bend                   151    18   146               109.16788
  443 Bend                   152    17    22               115.17840
  444 Bend                   152    17    44               111.71037
  445 Bend                   152    17    52               109.09818
  446 Torsion                  1    10    83    50        -167.34735
  447 Torsion                  1    10   117   131        -129.70529
  448 Torsion                  1    10   130    63        -159.00166
  449 Torsion                  1    10   130   119         -46.10821
  450 Torsion                  1    10   130   135          78.22988
  451 Torsion                 10     1   149   130         170.37061
  452 Torsion                  2   133     8    65        -179.86843
  453 Torsion                  2   133     8    74         -58.05384
  454 Torsion                  2   133     8    94          59.19579
  455 Torsion                  4   136    42    34        -140.11037
  456 Torsion                  4   136    42    74         -20.64492
  457 Torsion                  4   136    42    91          96.39223
  458 Torsion                  5    53    46    38         -74.80351
  459 Torsion                  5    53    46    75          41.27986
  460 Torsion                  5    53    46    95         161.94302
  461 Torsion                  6   138   124   154         155.67377
  462 Torsion                  7    52    17    22          40.68874
  463 Torsion                  7    52    17    44         -71.78503
  464 Torsion                  7    52    17    66         167.11313
  465 Torsion                  8    65   122    55         113.96125
  466 Torsion                  8    65   122   103        -124.10732
  467 Torsion                  8    65   122   109          -5.84206
  468 Torsion                  8    74    42    34         143.13490
  469 Torsion                  8    74    42    91         -95.09962
  470 Torsion                  8    74    42   136          21.95447
  471 Torsion                  9    75    46    38         -28.47627
  472 Torsion                  9    75    46    53        -146.30222
  473 Torsion                  9    75    46    95          88.87995
  474 Torsion                  9   108   126    59         -50.14991
  475 Torsion                  9   108   126   107          69.15176
  476 Torsion                  9   108   126   127        -170.23821
  477 Torsion                 10    83    50    39          14.61553
  478 Torsion                 10    83    50    57        -102.52224
  479 Torsion                 10    83    50   101         136.74003
  480 Torsion                 11    45    16    43         -18.32014
  481 Torsion                 11    45    16    62        -137.39193
  482 Torsion                 11    45    16    80         100.32349
  483 Torsion                 12    35   106    43        -172.91010
  484 Torsion                 12    35   106    97         -54.72314
  485 Torsion                 12    35   106   132          65.90093
  486 Torsion                 12   103   122    55        -176.48931
  487 Torsion                 12   103   122    65          62.04419
  488 Torsion                 12   103   122   109         -52.05712
  489 Torsion                 13   107   126    59         119.08605
  490 Torsion                 13   107   126   108           0.59924
  491 Torsion                 13   107   126   127        -120.49119
  492 Torsion                 13   115   110    44        -169.76177
  493 Torsion                 13   115   110    47         -49.14065
  494 Torsion                 13   115   110    51          66.02224
  495 Torsion                 14    54   114    78         121.00547
  496 Torsion                 14    54   114    79        -121.14540
  497 Torsion                 14    54   114   146          -1.52778
  498 Torsion                 14   119   130    63          37.02698
  499 Torsion                 14   119   130   135         157.44132
  500 Torsion                 14   119   130   149         -79.73613
  501 Torsion                 15    81     5    53         109.55949
  502 Torsion                 15    81     5   129         -10.76244
  503 Torsion                 15    81     5   134        -130.96744
  504 Torsion                 16    43   106    35          56.74393
  505 Torsion                 16    43   106    97         -60.55935
  506 Torsion                 16    43   106   132         176.92420
  507 Torsion                 17    44   110    47        -113.36469
  508 Torsion                 17    44   110    51         121.27341
  509 Torsion                 17    44   110   115           2.06947
  510 Torsion                 18   146   114    54         -36.83575
  511 Torsion                 18   146   114    78        -156.91225
  512 Torsion                 18   146   114    79          82.54203
  513 Torsion                 19    12    35   106         136.35149
  514 Torsion                 19    12   103   122           2.08001
  515 Torsion                 12    19   104   120        -174.99591
  516 Torsion                 20   139    38    46         124.74192
  517 Torsion                 20   139    84   113        -155.49447
  518 Torsion                 20   139    91    42         117.59794
  519 Torsion                 21   143    39    50        -142.79519
  520 Torsion                 21   143    85   148         140.65119
  521 Torsion                 21   143    95    46        -155.22519
  522 Torsion                 22    17    44   110         -47.90141
  523 Torsion                 17    22    66   152        -174.03092
  524 Torsion                 23    13   107   126          70.67894
  525 Torsion                 23    13   115   110         140.14797
  526 Torsion                 23    13   147    61        -117.61238
  527 Torsion                 24   140    59   126         172.80634
  528 Torsion                 24   140    88   150         -91.91744
  529 Torsion                 24   140   109   122          36.81199
  530 Torsion                 25   144    63   130         136.96725
  531 Torsion                 25   144    89   112        -118.25603
  532 Torsion                 25   144   127   126         127.99981
  533 Torsion                  3    56    26    18         176.71094
  534 Torsion                 18    26    68   151         177.20591
  535 Torsion                 26    18   146   114          -3.58830
  536 Torsion                 27    14    32   118        -149.26053
  537 Torsion                 27    14    54   114         -24.66224
  538 Torsion                 27    14   119   130         175.81710
  539 Torsion                 28    36    51   110         -22.26799
  540 Torsion                 36    28    92    64         178.19319
  541 Torsion                 28    36    97   106         102.34977
  542 Torsion                 29    37    47   110          29.84289
  543 Torsion                 29    37   114    54         -72.12900
  544 Torsion                 29    37   114    78          46.71419
  545 Torsion                 29    37   114   146         172.38159
  546 Torsion                 37    29    79   114         170.62806
  547 Torsion                 37    29    93    67        -176.59672
  548 Torsion                 30    19    12    35        -164.19309
  549 Torsion                 30    19    12   103         -46.16452
  550 Torsion                 30    19    12   104          72.48779
  551 Torsion                 32    14    27    40         -55.94044
  552 Torsion                 32    14    54   114          96.58968
  553 Torsion                 32    14   119   130          53.34969
  554 Torsion                 33     9    75    46        -129.53709
  555 Torsion                 33     9    98   123        -139.25157
  556 Torsion                 33     9   108   126        -104.87478
  557 Torsion                 34    42    91   139         172.80736
  558 Torsion                 35    12   103   122         122.02686
  559 Torsion                 12    35   104   120         178.07959
  560 Torsion                 35   106    97    36         -80.24394
  561 Torsion                 71   132    35   106        -179.17432
  562 Torsion                 36    51   110    44        -171.33933
  563 Torsion                 36    51   110    47          60.11470
  564 Torsion                 36    51   110   115         -54.25210
  565 Torsion                 36    97   106    43          37.53149
  566 Torsion                 36    97   106   132         160.10274
  567 Torsion                 37    47   110    44         126.78354
  568 Torsion                 37    47   110    51        -103.43968
  569 Torsion                 37    47   110   115          12.35154
  570 Torsion                 38    46    95   143          70.17738
  571 Torsion                 72    20    38   139        -174.48747
  572 Torsion                 38   139    84   113         -34.28132
  573 Torsion                 38   139    91    42          -2.11381
  574 Torsion                 39    50     6    86           2.25451
  575 Torsion                 39    50     6   137         127.35777
  576 Torsion                 39    50     6   138        -116.21716
  577 Torsion                  6    57    39    50         171.44912
  578 Torsion                 50    39   101    69        -177.58139
  579 Torsion                 73    21    39   143         179.71315
  580 Torsion                 39   143    85   148         -95.96688
  581 Torsion                 39   143    95    46          85.09875
  582 Torsion                 40    27    14    54          64.48489
  583 Torsion                 40    27    14   119        -176.31005
  584 Torsion                 41   128     4   116         -73.13891
  585 Torsion                 41   128     4   125         163.74236
  586 Torsion                 41   128     4   136          46.06335
  587 Torsion                 42    74     8    65         176.89370
  588 Torsion                 42    74     8    94         -62.92980
  589 Torsion                 42    74     8   133          53.71581
  590 Torsion                 42    91   139    84        -119.81303
  591 Torsion                 42   136     4   116         141.14528
  592 Torsion                 42   136     4   125         -91.96830
  593 Torsion                 42   136     4   128          21.97826
  594 Torsion                 43    16    62   153        -108.01814
  595 Torsion                 16    43    80    31         178.96335
  596 Torsion                 71   132    43   106        -176.26415
  597 Torsion                 44    17    22    48          15.16407
  598 Torsion                 17    44    66   152         170.69938
  599 Torsion                 45    16    43   106         -11.52752
  600 Torsion                 45    16    62   153           7.16519
  601 Torsion                 16    45    80    31        -177.00692
  602 Torsion                 46    38   139    84           3.05897
  603 Torsion                 46    38   139    91        -115.69882
  604 Torsion                 46    53     5    81          21.66569
  605 Torsion                 46    53     5   129         141.39602
  606 Torsion                 46    53     5   134         -98.91442
  607 Torsion                 46    75     9    98         109.37859
  608 Torsion                 46    75     9   108          -8.05551
  609 Torsion                 46    95   143    85         -33.28526
  610 Torsion                 47    37    29    96        -107.74871
  611 Torsion                 47    37   114    54          44.23210
  612 Torsion                 47    37   114    78         163.07530
  613 Torsion                 47    37   114   146         -71.25730
  614 Torsion                 37    47    79   114        -176.50757
  615 Torsion                 37    47    93    67        -179.26516
  616 Torsion                 48    22    17    52         -98.06415
  617 Torsion                 48    22    17    66         137.04267
  618 Torsion                 49    78   114    54        -111.55733
  619 Torsion                 49    78   114    79         128.88402
  620 Torsion                 49    78   114   146           6.58405
  621 Torsion                 50    39   143    85          92.89285
  622 Torsion                 50    39   143    95         -22.79097
  623 Torsion                 50    83    10   117          71.48714
  624 Torsion                 50    83    10   149         -45.18589
  625 Torsion                 51    36    28    87           4.99304
  626 Torsion                 36    51    92    64         179.03287
  627 Torsion                 51    36    97   106         -13.33001
  628 Torsion                 52    17    44   110          68.23224
  629 Torsion                 17    52    66   152        -176.85726
  630 Torsion                 53     5   129   142          87.69857
  631 Torsion                 53     5   134   121         177.73612
  632 Torsion                 53    46    38   139         155.36810
  633 Torsion                 53    46    95   143        -165.79100
  634 Torsion                 54    14    32   118          90.77081
  635 Torsion                 54    14   119   130         -64.19148
  636 Torsion                 54   114    37    93         166.49042
  637 Torsion                 37    79    54   114        -176.87456
  638 Torsion                 55   122   109   140        -111.96536
  639 Torsion                 56    18    26   102        -132.20817
  640 Torsion                 18    56    68   151         177.42357
  641 Torsion                 56    18   146   114         116.57016
  642 Torsion                  6    57    86   111        -177.67411
  643 Torsion                  6    57   137   145         176.76224
  644 Torsion                 57     6   138   124        -124.69160
  645 Torsion                 57    50    39   143          38.28508
  646 Torsion                 50    57   101    69         179.05243
  647 Torsion                 59   126   127   144         166.92220
  648 Torsion                 59   140    24    76          71.65401
  649 Torsion                 59   140    88   150          27.99802
  650 Torsion                 59   140   109   122         -83.06963
  651 Torsion                 61   147    13   107          -2.77198
  652 Torsion                 61   147    13   115         115.53746
  653 Torsion                 62    16    43   106         106.11657
  654 Torsion                 16    62    80    31         178.21680
  655 Torsion                 70   135    63   130         177.54684
  656 Torsion                 63   130    10    83          76.18362
  657 Torsion                 63   130    10   117         -39.22865
  658 Torsion                 10   149    63   130         172.32641
  659 Torsion                 63   144    25    77         168.67297
  660 Torsion                 63   144    89   112           3.51704
  661 Torsion                 63   144   127   126           9.83063
  662 Torsion                 65     8    94    82          -4.44049
  663 Torsion                 65   122    55   105        -174.23841
  664 Torsion                 65   122   109   140           7.69066
  665 Torsion                 66    17    44   110        -171.09748
  666 Torsion                 68    18    26   102         104.67855
  667 Torsion                  3    56    68    18        -178.20569
  668 Torsion                 68    18   146   114        -124.01518
  669 Torsion                 74     8    65   122         -22.94626
  670 Torsion                 74     8    94    82        -124.98466
  671 Torsion                 74    42    34   100        -104.90234
  672 Torsion                 74    42    91   139          50.62450
  673 Torsion                 75     9    33    90         -53.21945
  674 Torsion                 75     9    98   123         -16.85059
  675 Torsion                 75     9   108   126         133.10336
  676 Torsion                 75    46    38   139          39.97885
  677 Torsion                 75    46    95   143         -46.45567
  678 Torsion                 76    24   140    88        -171.98952
  679 Torsion                 76    24   140   109         -47.28813
  680 Torsion                 77    25   144    89         -69.41742
  681 Torsion                 77    25   144   127          50.51761
  682 Torsion                 78   114    37    93         -74.66639
  683 Torsion                 37    79    78   114        -173.21540
  684 Torsion                 79    37    29    96           8.89753
  685 Torsion                 79    37    47   110         -85.56177
  686 Torsion                 37    79    93    67         175.70151
  687 Torsion                 80    16    43   106        -130.97033
  688 Torsion                 80    16    62   153         129.60649
  689 Torsion                 81     5   129   142        -152.50678
  690 Torsion                 81     5   134   121          57.94701
  691 Torsion                 82    94     8   133         118.24247
  692 Torsion                 10    83     1    60         179.48603
  693 Torsion                 83    10   117   131          -7.76086
  694 Torsion                 83    10   130   119        -170.92293
  695 Torsion                 83    10   130   135         -46.58484
  696 Torsion                 10    83   149   130        -172.82742
  697 Torsion                 83    50    39   143         -78.49025
  698 Torsion                 83    50     6    86         118.35702
  699 Torsion                 83    50     6   137        -116.53971
  700 Torsion                 83    50     6   138          -0.11465
  701 Torsion                  6    57    83    50        -177.16378
  702 Torsion                 50    83   101    69         178.51888
  703 Torsion                 72    20    84   139         178.50303
  704 Torsion                 73    21    85   143        -179.09163
  705 Torsion                 86     6    50   101        -120.96614
  706 Torsion                  6    86    57    50        -171.15657
  707 Torsion                  6    86   137   145        -172.78660
  708 Torsion                 86     6   138   124         114.83565
  709 Torsion                 87    28    36    92         125.91163
  710 Torsion                 87    28    36    97        -111.00462
  711 Torsion                 88   140    59   126          50.61135
  712 Torsion                 88   140   109   122         162.72866
  713 Torsion                 89   144    63   130          13.39784
  714 Torsion                 89   144   127   126        -110.17467
  715 Torsion                 90    33     9    98          67.35060
  716 Torsion                 90    33     9   108        -172.34320
  717 Torsion                 91    42    34   100         133.37328
  718 Torsion                 72    20    91   139         176.08223
  719 Torsion                 91   139    84   113          82.50837
  720 Torsion                 92    36    51   110        -144.14927
  721 Torsion                 92    36    97   106        -133.18777
  722 Torsion                 93    37    29    96         130.23623
  723 Torsion                 93    37    47   110         151.17286
  724 Torsion                 93    37   114   146          51.00101
  725 Torsion                 37    93    79   114        -173.62868
  726 Torsion                 94     8    65   122        -142.56118
  727 Torsion                 95    46    38   139         -77.50007
  728 Torsion                 73    21    95   143         179.35375
  729 Torsion                 95   143    85   148          19.41950
  730 Torsion                 97    36    51   110          96.58259
  731 Torsion                 36    97    92    64        -177.34997
  732 Torsion                 71   132    97   106         175.40755
  733 Torsion                 98     9   108   126          15.82000
  734 Torsion                 99    23    13   107         -60.20418
  735 Torsion                 99    23    13   115        -179.07311
  736 Torsion                 99    23    13   147          55.78887
  737 Torsion                100    34    42   136           9.90125
  738 Torsion                101    50    39   143         159.61176
  739 Torsion                101    50     6   137           4.13713
  740 Torsion                101    50     6   138         120.56219
  741 Torsion                  6    57   101    50        -174.12168
  742 Torsion                102    26    18   146         -13.98722
  743 Torsion                103    12    35   106          20.83488
  744 Torsion                 12   103   104   120         176.86132
  745 Torsion                103   122    55   105          66.33827
  746 Torsion                103   122   109   140         123.30795
  747 Torsion                104    12    35   106        -100.65913
  748 Torsion                104    12   103   122        -116.33687
  749 Torsion                105    55   122   109         -58.18263
  750 Torsion                107    13   115   110          22.11749
  751 Torsion                107   126    59   140          -1.65900
  752 Torsion                107   126   127   144          44.88861
  753 Torsion                108     9    98   123          99.25735
  754 Torsion                108   126    59   140         113.92673
  755 Torsion                108   126   127   144         -72.09609
  756 Torsion                109   140    59   126         -68.40927
  757 Torsion                109   140    88   150         145.06318
  758 Torsion                110   115    13   147         -96.36483
  759 Torsion                112    89   144   127         123.36218
  760 Torsion                114    54    14   119        -147.43194
  761 Torsion                115    13   107   126        -166.18051
  762 Torsion                116     4   125   141        -136.04172
  763 Torsion                 10   117     1    60         175.80569
  764 Torsion                117    10   130   119          73.66479
  765 Torsion                117    10   130   135        -161.99712
  766 Torsion                 10   117   149   130        -177.06884
  767 Torsion                118    32    14   119         -25.36231
  768 Torsion                119   130    63   144          18.78314
  769 Torsion                 70   135   119   130        -178.15550
  770 Torsion                 10   149   119   130        -173.03477
  771 Torsion                121   134     5   129         -62.11966
  772 Torsion                122    65     8   133          97.57676
  773 Torsion                124   138     6   137          -5.93140
  774 Torsion                  4   125   116    58         176.54529
  775 Torsion                126   107    13   147         -45.52787
  776 Torsion                127   126    59   140        -123.79322
  777 Torsion                127   144    63   130        -106.49744
  778 Torsion                  4   128   116    58         177.94240
  779 Torsion                128     4   125   141         -13.74962
  780 Torsion                131   117    10   149         109.44258
  781 Torsion                134     5   129   142         -31.59621
  782 Torsion                135   130    63   144        -103.06264
  783 Torsion                 10   149   135   130        -179.53705
  784 Torsion                  4   136   116    58        -174.49314
  785 Torsion                136     4   125   141          97.76155
  786 Torsion                136    42    91   139         -61.85119
  787 Torsion                  6   137    57    50         173.64156
  788 Torsion                  6   137    86   111         174.69109
  789 Torsion                  6   138    57    50         177.20190
  790 Torsion                  6   138    86   111        -176.90265
  791 Torsion                  6   138   137   145         175.84678
  792 Torsion                144    63   130   149         134.56434
  793 Torsion                  3    56   146    18        -178.62110
  794 Torsion                 18   146    68   151        -174.43133
  795 Torsion                 37    79   146   114         170.04035
  796 Torsion                 10   149     1    60        -175.42943
  797 Torsion                 70   135   149   130        -179.34022


            XYZ format geometry
            -------------------
   154
 geometry
 O                    -2.92834770     1.69301968    -5.04760996
 H                     1.92828743    -5.77742331     0.17915586
 H                    -5.89908558     9.54757478     1.41363986
 Si                    0.84565724    -8.62426013     3.31464779
 Si                   -0.29744433    -7.68441254    -1.00221745
 Si                   -0.90925533    -4.08496385    -5.22346702
 H                    -1.44815817     6.24620088    -1.03435381
 Si                    2.98721226    -4.88454232     2.26986587
 Si                    0.06335494    -2.42041223    -1.07811412
 Si                   -2.91013300     0.62680455    -3.78442817
 H                     2.72437496     3.28822154    -2.04105509
 Si                    4.85250355    -0.46902725    -0.13632317
 Si                    0.61784914     2.41543675    -0.46224726
 Si                   -3.83415860     4.72342700    -0.68066738
 H                     1.55102558    -7.83085158     0.75844150
 Si                    4.85692104     4.61556520    -2.03742310
 Si                    0.81716668     7.15755885    -0.49637847
 Si                   -3.67497238     8.40109707     2.17730813
 O                     3.38194035    -0.60270444    -0.93627001
 O                    -3.68429784    -5.06015069     3.49696690
 O                    -6.09292579    -4.77080392    -1.80073851
 O                     1.67793859     6.37690845    -1.67479424
 O                    -0.48006477     2.70963133    -1.69302274
 O                     0.60293444    -1.91086719     4.86740636
 O                    -4.74141404    -0.99267600     1.97394836
 O                    -2.60220151     8.25178610     0.93132024
 O                    -4.62360631     6.05031004    -1.26997177
 O                     3.38533997     2.39411701     3.85197057
 O                    -1.10167166     2.46045829     3.99169009
 H                     2.70602898    -1.30010143    -1.05528770
 H                     6.23594682     4.33479041    -4.23822216
 O                    -2.26022138     4.67601025    -1.23118049
 O                    -0.01493983    -1.82536024    -2.63095770
 O                     0.62614670    -5.05094708     5.84850086
 O                     5.32228399     1.10710312     0.02949125
 Si                    4.05452731     3.66260009     3.02806427
 Si                   -1.01909327     4.13949006     3.93617792
 O                    -2.15750916    -4.76890436     1.25451656
 O                    -4.37532871    -3.11909714    -3.12449238
 H                    -4.98138170     6.88698979    -1.55585442
 H                     3.03484271    -7.67688070     2.40527994
 Si                    0.42934475    -5.54965669     4.27707549
 O                     5.50209241     3.67039991    -0.82013850
 O                     1.16779847     6.31001781     0.92035917
 O                     3.29079342     4.05587061    -2.23597875
 Si                   -1.98430202    -4.91641515    -0.39169192
 O                     0.16400672     4.60120674     2.87049489
 H                     2.19495050     5.66796434    -2.09044773
 H                    -5.99949368     4.26012542     3.77243112
 Si                   -3.75055527    -2.49836592    -4.53423159
 O                     2.78054542     4.48754156     2.31475251
 O                    -0.82364930     6.95194968    -0.75661073
 O                    -1.30494949    -6.38941438    -0.76444219
 O                    -3.83936881     4.79315682     0.98617750
 O                     5.26065818    -1.72737215     3.95260983
 O                    -5.09709052     9.11276985     1.68775309
 O                    -2.36310698    -3.34635000    -4.91300541
 H                     1.41445774   -10.52468430     5.00403118
 O                     0.13697519    -0.54326891     2.55062920
 H                    -2.92102517     2.34339230    -5.74512995
 H                     2.60309957     0.99479943    -1.17988968
 O                     4.80670918     6.20807704    -1.59147660
 O                    -4.40953198     0.91554443     0.07381125
 H                     5.39861045     5.26827313     4.58705319
 O                     3.67589793    -3.39957656     2.46551172
 O                     1.19502353     8.76128142    -0.35403436
 H                    -0.51162254     5.10220528     6.30394574
 O                    -3.03581380     9.26295865     3.44627458
 H                    -5.48786644    -2.65169796    -6.47484089
 H                    -7.41803457     1.22119162    -1.79393703
 H                     8.43152731     2.61334520     0.87715408
 H                    -4.43954582    -5.51455017     3.86054007
 H                    -6.84496861    -5.34781451    -1.89932172
 O                     1.73260866    -5.08108826     3.34024803
 O                    -0.89305294    -3.75875075    -0.88471012
 H                     0.33537293    -2.70505403     5.33023681
 H                    -4.96409793    -1.79172421     2.45096622
 O                    -5.15806815     4.37875643     3.33519411
 O                    -2.48298328     4.65765483     3.34314599
 O                     5.73988020     4.42154127    -3.42936736
 O                     1.03973017    -7.52461253    -0.02380809
 H                     5.02186017    -6.39149124     2.75166059
 O                    -3.32078708    -0.91242500    -4.26722019
 O                    -2.40259541    -2.70916276     2.97542125
 O                    -5.07045367    -2.56080210    -0.53883025
 O                    -0.59599779    -5.26397192    -4.11162699
 H                     2.78016604     1.73552538     4.22609672
 O                     1.12953314     0.80432813     4.58564877
 O                    -4.22700380     1.62578026     2.67859704
 H                     0.08775707    -2.09461334    -3.56995529
 O                    -0.96781106    -4.92102562     3.65456371
 O                     4.91395385     4.66965289     4.02638033
 O                    -0.71657239     4.73495669     5.44819377
 O                     4.13657962    -6.08442457     2.55779709
 O                    -3.44360577    -4.60938141    -1.10435753
 H                    -1.59977904     1.67595546     3.75183759
 O                     5.03785461     3.12628006     1.79096434
 O                     1.64384079    -2.83297431    -0.71426960
 H                    -0.86009171     2.11118196    -2.37696081
 H                     0.77366442    -4.92009645     6.78282028
[...]
  596 Torsion                 71   132    43   106        -176.34967   -0.08552
  597 Torsion                 44    17    22    48          14.79411   -0.36995
  598 Torsion                 17    44    66   152         170.70798    0.00860
  599 Torsion                 45    16    43   106         -11.34529    0.18223
  600 Torsion                 45    16    62   153           7.89531    0.73012
  601 Torsion                 16    45    80    31        -176.94236    0.06456
  602 Torsion                 46    38   139    84           3.46361    0.40464
  603 Torsion                 46    38   139    91        -115.23455    0.46427
  604 Torsion                 46    53     5    81          22.74820    1.08251
  605 Torsion                 46    53     5   129         142.43554    1.03952
  606 Torsion                 46    53     5   134         -97.85936    1.05506
  607 Torsion                 46    75     9    98         105.53774   -3.84085
  608 Torsion                 46    75     9   108         -11.83967   -3.78417
  609 Torsion                 46    95   143    85         -32.71293    0.57233
  610 Torsion                 47    37    29    96        -107.45009    0.29862
  611 Torsion                 47    37   114    54          43.95362   -0.27848
  612 Torsion                 47    37   114    78         162.67383   -0.40147
  613 Torsion                 47    37   114   146         -71.59856   -0.34126
  614 Torsion                 37    47    79   114        -176.26272    0.24486
  615 Torsion                 37    47    93    67        -178.73044    0.53472
  616 Torsion                 48    22    17    52         -98.42442   -0.36026
  617 Torsion                 48    22    17    66         136.64432   -0.39834
  618 Torsion                 49    78   114    54        -110.54519    1.01214
  619 Torsion                 49    78   114    79         129.86660    0.98258
  620 Torsion                 49    78   114   146           7.51801    0.93396
  621 Torsion                 50    39   143    85          93.49734    0.60448
  622 Torsion                 50    39   143    95         -22.14984    0.64113
  623 Torsion                 50    83    10   117          66.74788   -4.73926
  624 Torsion                 50    83    10   149         -49.98533   -4.79944
  625 Torsion                 51    36    28    87           4.67550   -0.31754
  626 Torsion                 36    51    92    64         179.09298    0.06011
  627 Torsion                 51    36    97   106         -13.29382    0.03619
  628 Torsion                 52    17    44   110          68.29848    0.06624
  629 Torsion                 17    52    66   152        -176.65350    0.20376
  630 Torsion                 53     5   129   142          88.32634    0.62777
  631 Torsion                 53     5   134   121         177.92362    0.18751
  632 Torsion                 53    46    38   139         154.52436   -0.84374
  633 Torsion                 53    46    95   143        -166.63942   -0.84842
  634 Torsion                 54    14    32   118          91.57797    0.80716
  635 Torsion                 54    14   119   130         -64.81851   -0.62702
  636 Torsion                 54   114    37    93         166.21391   -0.27651
  637 Torsion                 37    79    54   114        -177.13343   -0.25887
  638 Torsion                 55   122   109   140        -112.27895   -0.31360
  639 Torsion                 56    18    26   102        -132.48128   -0.27310
  640 Torsion                 18    56    68   151         177.44840    0.02482
  641 Torsion                 56    18   146   114         116.28944   -0.28071
  642 Torsion                  6    57    86   111        -178.34174   -0.66763
  643 Torsion                  6    57   137   145         176.88392    0.12168
  644 Torsion                 57     6   138   124        -125.21537   -0.52376
  645 Torsion                 57    50    39   143          37.29537   -0.98971
  646 Torsion                 50    57   101    69         179.24811    0.19569
  647 Torsion                 59   126   127   144         166.93121    0.00900
  648 Torsion                 59   140    24    76          71.62855   -0.02546
  649 Torsion                 59   140    88   150          28.03809    0.04006
  650 Torsion                 59   140   109   122         -82.75336    0.31627
  651 Torsion                 61   147    13   107          -2.72499    0.04700
  652 Torsion                 61   147    13   115         115.57017    0.03271
  653 Torsion                 62    16    43   106         106.31493    0.19836
  654 Torsion                 16    62    80    31         178.16029   -0.05651
  655 Torsion                 70   135    63   130         177.43300   -0.11384
  656 Torsion                 63   130    10    83          76.00418   -0.17944
  657 Torsion                 63   130    10   117         -39.54331   -0.31465
  658 Torsion                 10   149    63   130         173.05927    0.73286
  659 Torsion                 63   144    25    77         166.36808   -2.30489
  660 Torsion                 63   144    89   112           1.51214   -2.00490
  661 Torsion                 63   144   127   126           9.80946   -0.02117
  662 Torsion                 65     8    94    82          -4.35870    0.08179
  663 Torsion                 65   122    55   105        -174.41511   -0.17670
  664 Torsion                 65   122   109   140           7.36249   -0.32817
  665 Torsion                 66    17    44   110        -170.98533    0.11215
  666 Torsion                 68    18    26   102         104.39328   -0.28528
  667 Torsion                  3    56    68    18        -178.37800   -0.17231
  668 Torsion                 68    18   146   114        -124.27058   -0.25540
  669 Torsion                 74     8    65   122         -22.74450    0.20176
  670 Torsion                 74     8    94    82        -124.87248    0.11217
  671 Torsion                 74    42    34   100        -104.88417    0.01817
  672 Torsion                 74    42    91   139          51.00902    0.38452
  673 Torsion                 75     9    33    90         -52.97681    0.24264
  674 Torsion                 75     9    98   123         -16.50043    0.35016
  675 Torsion                 75     9   108   126         133.87344    0.77008
  676 Torsion                 75    46    38   139          38.97453   -1.00432
  677 Torsion                 75    46    95   143         -47.28489   -0.82922
  678 Torsion                 76    24   140    88        -172.00495   -0.01544
  679 Torsion                 76    24   140   109         -47.36531   -0.07719
  680 Torsion                 77    25   144    89         -71.66045   -2.24303
  681 Torsion                 77    25   144   127          48.24908   -2.26852
  682 Torsion                 78   114    37    93         -75.06589   -0.39950
  683 Torsion                 37    79    78   114        -172.92154    0.29387
  684 Torsion                 79    37    29    96           9.17402    0.27649
  685 Torsion                 79    37    47   110         -85.22362    0.33815
  686 Torsion                 37    79    93    67         175.52902   -0.17249
  687 Torsion                 80    16    43   106        -130.78124    0.18909
  688 Torsion                 80    16    62   153         130.31982    0.71333
  689 Torsion                 81     5   129   142        -151.87049    0.63628
  690 Torsion                 81     5   134   121          58.07803    0.13103
  691 Torsion                 82    94     8   133         118.36960    0.12712
  692 Torsion                 10    83     1    60         179.57291    0.08688
  693 Torsion                 83    10   117   131          -8.47485   -0.71399
  694 Torsion                 83    10   130   119        -170.95766   -0.03473
  695 Torsion                 83    10   130   135         -46.66191   -0.07707
  696 Torsion                 10    83   149   130        -173.61897   -0.79155
  697 Torsion                 83    50    39   143         -79.52875   -1.03850
  698 Torsion                 83    50     6    86         118.45033    0.09331
  699 Torsion                 83    50     6   137        -116.49391    0.04580
  700 Torsion                 83    50     6   138          -0.07704    0.03761
  701 Torsion                  6    57    83    50        -177.56231   -0.39853
  702 Torsion                 50    83   101    69         178.01614   -0.50273
  703 Torsion                 72    20    84   139         178.42172   -0.08131
  704 Torsion                 73    21    85   143        -179.03188    0.05975
  705 Torsion                 86     6    50   101        -120.85317    0.11296
  706 Torsion                  6    86    57    50        -171.94727   -0.79070
  707 Torsion                  6    86   137   145        -172.73494    0.05166
  708 Torsion                 86     6   138   124         114.34914   -0.48651
  709 Torsion                 87    28    36    92         125.55428   -0.35736
  710 Torsion                 87    28    36    97        -111.28340   -0.27878
  711 Torsion                 88   140    59   126          49.48696   -1.12439
  712 Torsion                 88   140   109   122         162.97619    0.24754
  713 Torsion                 89   144    63   130          14.07290    0.67505
  714 Torsion                 89   144   127   126        -110.13704    0.03763
  715 Torsion                 90    33     9    98          67.67944    0.32884
  716 Torsion                 90    33     9   108        -172.05745    0.28574
  717 Torsion                 91    42    34   100         133.45325    0.07997
  718 Torsion                 72    20    91   139         176.24610    0.16387
  719 Torsion                 91   139    84   113          80.81385   -1.69452
  720 Torsion                 92    36    51   110        -142.01011    2.13916
  721 Torsion                 92    36    97   106        -133.15372    0.03405
  722 Torsion                 93    37    29    96         130.46741    0.23118
  723 Torsion                 93    37    47   110         151.60146    0.42860
  724 Torsion                 93    37   114   146          50.66172   -0.33929
  725 Torsion                 37    93    79   114        -173.84182   -0.21314
  726 Torsion                 94     8    65   122        -142.29265    0.26853
  727 Torsion                 95    46    38   139         -78.38574   -0.88568
  728 Torsion                 73    21    95   143         179.53212    0.17838
  729 Torsion                 95   143    85   148          20.32067    0.90118
  730 Torsion                 97    36    51   110          98.67924    2.09664
  731 Torsion                 36    97    92    64        -177.47424   -0.12426
  732 Torsion                 71   132    97   106         175.43706    0.02951
  733 Torsion                 98     9   108   126          16.52023    0.70022
  734 Torsion                 99    23    13   107         -60.58531   -0.38112
  735 Torsion                 99    23    13   115        -179.38734   -0.31423
  736 Torsion                 99    23    13   147          55.42393   -0.36494
  737 Torsion                100    34    42   136           9.94965    0.04840
  738 Torsion                101    50    39   143         158.58341   -1.02834
  739 Torsion                101    50     6   137           4.20258    0.06545
  740 Torsion                101    50     6   138         120.61945    0.05726
  741 Torsion                  6    57   101    50        -174.52602   -0.40434
  742 Torsion                102    26    18   146         -14.26195   -0.27473
  743 Torsion                103    12    35   106          19.78100   -1.05388
  744 Torsion                 12   103   104   120         176.95452    0.09320
  745 Torsion                103   122    55   105          66.20725   -0.13102
  746 Torsion                103   122   109   140         122.97227   -0.33567
  747 Torsion                104    12    35   106        -101.71666   -1.05753
  748 Torsion                104    12   103   122        -116.70474   -0.36787
  749 Torsion                105    55   122   109         -58.37373   -0.19110
  750 Torsion                107    13   115   110          24.84275    2.72526
  751 Torsion                107   126    59   140          -0.68757    0.97144
  752 Torsion                107   126   127   144          44.73933   -0.14928
  753 Torsion                108     9    98   123          99.60348    0.34612
  754 Torsion                108   126    59   140         114.86148    0.93474
  755 Torsion                108   126   127   144         -72.17743   -0.08134
  756 Torsion                109   140    59   126         -69.57087   -1.16160
  757 Torsion                109   140    88   150         145.17667    0.11349
  758 Torsion                110   115    13   147         -93.64799    2.71684
  759 Torsion                112    89   144   127         121.32777   -2.03441
  760 Torsion                114    54    14   119        -147.60188   -0.16994
  761 Torsion                115    13   107   126        -164.08258    2.09793
  762 Torsion                116     4   125   141        -135.78480    0.25692
  763 Torsion                 10   117     1    60         175.37923   -0.42646
  764 Torsion                117    10   130   119          73.49485   -0.16994
  765 Torsion                117    10   130   135        -162.20940   -0.21228
  766 Torsion                 10   117   149   130        -177.37080   -0.30196
  767 Torsion                118    32    14   119         -24.61206    0.75025
  768 Torsion                119   130    63   144          18.06516   -0.71799
  769 Torsion                 70   135   119   130        -178.55259   -0.39710
  770 Torsion                 10   149   119   130        -173.69976   -0.66499
  771 Torsion                121   134     5   129         -61.94679    0.17287
  772 Torsion                122    65     8   133          97.81350    0.23673
  773 Torsion                124   138     6   137          -6.49223   -0.56083
  774 Torsion                  4   125   116    58         176.74668    0.20139
  775 Torsion                126   107    13   147         -43.35861    2.16927
  776 Torsion                127   126    59   140        -122.86835    0.92487
  777 Torsion                127   144    63   130        -105.79597    0.70147
  778 Torsion                  4   128   116    58         177.81276   -0.12964
  779 Torsion                128     4   125   141         -13.47688    0.27274
  780 Torsion                131   117    10   149         108.69479   -0.74778
  781 Torsion                134     5   129   142         -30.97820    0.61801
  782 Torsion                135   130    63   144        -103.81098   -0.74835
  783 Torsion                 10   149   135   130        -179.59376   -0.05672
  784 Torsion                  4   136   116    58        -174.57866   -0.08553
  785 Torsion                136     4   125   141          98.01564    0.25409
  786 Torsion                136    42    91   139         -61.50550    0.34569
  787 Torsion                  6   137    57    50         174.09522    0.45365
  788 Torsion                  6   137    86   111         174.63452   -0.05657
  789 Torsion                  6   138    57    50         177.59814    0.39624
  790 Torsion                  6   138    86   111        -176.18320    0.71945
  791 Torsion                  6   138   137   145         175.69133   -0.15545
  792 Torsion                144    63   130   149         133.86361   -0.70073
  793 Torsion                  3    56   146    18        -178.50000    0.12110
  794 Torsion                 18   146    68   151        -174.43753   -0.00619
  795 Torsion                 37    79   146   114         169.96814   -0.07221
  796 Torsion                 10   149     1    60        -175.08883    0.34061
  797 Torsion                 70   135   149   130        -178.85205    0.48817



                                NWChem Input Module
                                -------------------




                                     CITATION
                                     --------
                Please cite the following reference when publishing
                           results obtained with NWChem:

          E. Apra, E. J. Bylaska, W. A. de Jong, N. Govind, K. Kowalski,
       T. P. Straatsma, M. Valiev, H. J. J. van Dam, Y. Alexeev, J. Anchell,
       V. Anisimov, F. W. Aquino, R. Atta-Fynn, J. Autschbach, N. P. Bauman,
     J. C. Becca, D. E. Bernholdt, K. Bhaskaran-Nair, S. Bogatko, P. Borowski,
         J. Boschen, J. Brabec, A. Bruner, E. Cauet, Y. Chen, G. N. Chuev,
      C. J. Cramer, J. Daily, M. J. O. Deegan, T. H. Dunning Jr., M. Dupuis,
   K. G. Dyall, G. I. Fann, S. A. Fischer, A. Fonari, H. Fruchtl, L. Gagliardi,
      J. Garza, N. Gawande, S. Ghosh, K. Glaesemann, A. W. Gotz, J. Hammond,
       V. Helms, E. D. Hermes, K. Hirao, S. Hirata, M. Jacquelin, L. Jensen,
   B. G. Johnson, H. Jonsson, R. A. Kendall, M. Klemm, R. Kobayashi, V. Konkov,
      S. Krishnamoorthy, M. Krishnan, Z. Lin, R. D. Lins, R. J. Littlefield,
      A. J. Logsdail, K. Lopata, W. Ma, A. V. Marenich, J. Martin del Campo,
   D. Mejia-Rodriguez, J. E. Moore, J. M. Mullin, T. Nakajima, D. R. Nascimento,
    J. A. Nichols, P. J. Nichols, J. Nieplocha, A. Otero-de-la-Roza, B. Palmer,
    A. Panyala, T. Pirojsirikul, B. Peng, R. Peverati, J. Pittner, L. Pollack,
   R. M. Richard, P. Sadayappan, G. C. Schatz, W. A. Shelton, D. W. Silverstein,
   D. M. A. Smith, T. A. Soares, D. Song, M. Swart, H. L. Taylor, G. S. Thomas,
            V. Tipparaju, D. G. Truhlar, K. Tsemekhman, T. Van Voorhis,
      A. Vazquez-Mayagoitia, P. Verma, O. Villa, A. Vishnu, K. D. Vogiatzis,
        D. Wang, J. H. Weare, M. J. Williamson, T. L. Windus, K. Wolinski,
        A. T. Wong, Q. Wu, C. Yang, Q. Yu, M. Zacharias, Z. Zhang, Y. Zhao,
                                and R. J. Harrison
                        "NWChem: Past, present, and future
                         J. Chem. Phys. 152, 184102 (2020)
                               doi:10.1063/5.0004997

                                      AUTHORS
                                      -------
  E. Apra, E. J. Bylaska, N. Govind, K. Kowalski, M. Valiev, D. Mejia-Rodriguez,
       A. Kunitsa, N. P. Bauman, A. Panyala, W. A. de Jong, T. P. Straatsma,
   H. J. J. van Dam, D. Wang, T. L. Windus, J. Hammond, J. Autschbach, A. Woods,
    K. Bhaskaran-Nair, J. Brabec, K. Lopata, S. A. Fischer, S. Krishnamoorthy,
     M. Jacquelin, W. Ma, M. Klemm, O. Villa, Y. Chen, V. Anisimov, F. Aquino,
     S. Hirata, M. T. Hackler, E. Hermes, L. Jensen, J. E. Moore, J. C. Becca,
      V. Konjkov, T. Risthaus, M. Malagoli, A. Marenich, A. Otero-de-la-Roza,
        J. Mullin, P. Nichols, R. Peverati, J. Pittner, Y. Zhao, P.-D. Fan,
        A. Fonari, M. J. Williamson, R. J. Harrison, J. R. Rehr, M. Dupuis,
     D. Silverstein, D. M. A. Smith, J. Nieplocha, V. Tipparaju, M. Krishnan,
     B. E. Van Kuiken, A. Vazquez-Mayagoitia, M. Swart, Q. Wu, T. Van Voorhis,
     A. A. Auer, M. Nooijen, L. D. Crosby, E. Brown, G. Cisneros, G. I. Fann,
   H. Fruchtl, J. Garza, K. Hirao, R. A. Kendall, J. A. Nichols, K. Tsemekhman,
    K. Wolinski, J. Anchell, D. E. Bernholdt, P. Borowski, T. Clark, D. Clerc,
   H. Dachsel, M. J. O. Deegan, K. Dyall, D. Elwood, E. Glendening, M. Gutowski,
   A. C. Hess, J. Jaffe, B. G. Johnson, J. Ju, R. Kobayashi, R. Kutteh, Z. Lin,
   R. Littlefield, X. Long, B. Meng, T. Nakajima, S. Niu, L. Pollack, M. Rosing,
   K. Glaesemann, G. Sandrone, M. Stave, H. Taylor, G. Thomas, J. H. van Lenthe,
                               A. T. Wong, Z. Zhang.

 Total times  cpu:     8654.2s     wall:     9592.0s
