 **********************************************************************
                          MRCC program system
 **********************************************************************
 
                              Written by
     Mihaly Kallay, Peter R. Nagy, David Mester, Laszlo Gyevi-Nagy,
        Jozsef Csoka, P. Bernat Szabo, Zoltan Rolik, Gyula Samu,
      Bence Hegely, Bence Ladoczki, Klara Petrov, Jozsef Csontos,
     Adam Ganyecz, Istvan Ladjanszki, Lorant Szegedy, Mate Farkas,
          Pal D. Mezei, Reka A. Horvath, and Balazs D. Lorincz
 
        Department of Physical Chemistry and Materials Science
            Budapest University of Technology and Economics
                  Budapest P.O.Box 91, H-1521 Hungary
 
                              www.mrcc.hu
 
                            Version: 25.1.5

 ************************ 2026-06-07 00:29:56 *************************
 Executing minp...

 Reading input from MINP...
 
 Input file:
 
iface=dirac
calc=CCSD
mem=7500MB
refdet=vector
 1 1 1 1 1 0 0 0 0 0 0 0 0 0 0 0 0 0 0 0 0 0 0 0 0 0 0 1 1 1 1 1 0 0 0 0 0 0 0 0 0 0 0 0 0 0 0 0 0 0 0 0 0 0
 
 
 Checking keyword combinations...
 
 Keywords:
 
 active=none
 agrid=ld0006-ld0590
 agrid_pssp=ld0006-ld0194
 agrid_pssp_sm=ld0006-ld0074
 basis=
 basis_sm=none
 basopt=off
 bfbasis=none
 bfgsmem=10
 bfgstol=1.0d-3
 boysalg=jacobi
 bpcompo=0.985
 bpcompv=0.98
 bpdfo=0.985
 bpocc=0.985
 bppdo=0.985
 bppdv=0.98
 bpedo=0.985
 bpedv=0.98
 bp_subsyso=0.95
 bp_subsysv=0.95
 cabscorr=off
 cabsdual=off
 calc=ccsd
 ccmaxit=50
 ccprog=mrcc
 ccsdalg=disk
 ccsdmkl=seq
 ccsdrest=off
 ccsdthreads=2
 cctol=6
 charge=0
 cialg=disk
 ciguess=off
 cmpgrp=auto
 comprest=off
 coord_sys=ric
 core=frozen
 corembed=off
 csapprox=off
 cvs=off
 dboc=off
 deltaf12=off
 delocsomofact=
 dendec=cholesky
 dens=0
 denscorr=0
 dfalg=lineq
 dfbasis_cab=none
 dfbasis_cor=none
 dfbasis_scf=none
 dfbasis_scf_sm=auto
 dfintran=ovirt
 dft=off
 dhexc=adc(2)
 diag=david
 docc=
 domrad=10.d0
 drpaalg=fit
 dual=off
 dual_df=off
 dyson=off
 ecp=auto
 edisp=off
 edisp_embed=off
 embed=off
 epairestfact=off
 epairscale=1.d0
 etemp=300
 epert=none
 eps=
 espcharge=off
 excrad=0.d0
 excrad_f12=0.d0
 excrad_fin=0.000000000D+00
 fastdbbsc=v2
 fitting=coulomb
 fmm=off
 fmmord=8
 fnonorb=
 freq=off
 gamma=1.d0
 gauss=spher
 geom=zmat
 gopt=off
 ghost=none
 gtol=7
 grdens=off
 grid=auto
 grid_sm=auto
 gridbatch_cos=2000
 grtol=10
 guido_ct=off
 hamilton=dc
 iface=dirac
 incore=off
 intalg=auto
 ip_ea=off
 itol=10
 laptol=1.d-2
 lccoporder=trffirst
 lcorthr=normal
 lccrest=off
 ldfgrad_tol=8
 lmp2dens=on
 lnoepso=0.d0
 lnoepsv=1e-6
 localcc=off
 localcorrsymm=off
 locintrf=disk
 mact=
 maxact=off
 maxdim=200
 maxex=0
 maxmicroit=100
 mcscfiguess=hf
 mem=7500mb
 mmprog=
 molden=on
 mp2ongrid=off
 mpitasks=1
 mulmet=0
 mult=
 nab=off
 nacto=0
 nactv=0
 naf_amp=3.16d-3
 naf_cor=off
 naf_f12=off
 naf_scf=off
 nafalg=albe
 nafdens=off
 naftyp=
 nchol=auto
 ndeps=1e-3
 nstate=1
 nsing=0
 nto=off
 ntrip=0
 num_grad=off
 occ=
 occri=off
 oniom=off
 oniom_eechg=off
 oniom_pcm=off
 oniom_qcorr=off
 optalg=
 optmaxit=50
 optetol=1e-6
 optex=0
 optgtol=1e-4
 optstol=1e-3
 orblocc=off
 orbloce=off
 orbloco=off
 orblocv=off
 orblocguess=cholesky
 osveps=1e-3
 ovirt=off
 ovltol=1e-7
 ovosnorb=80.0
 pao_subsys_tol=1e-3
 pao_tol=1e-3
 pcm=off
 popul=off
 pressure=100000
 pssp=off
 ptfreq=0.0
 ptthreads=2
 qmreg=
 qmmm=off
 qro=off
 qscf=off
 redcost_exc=off
 redcost_tddft=off
 refdet=vector
 rest=0
 rgrid=log3
 rism=off
 rohfcore=semicanonical
 rohftype=standard
 scfalg=auto
 scf_conv=auto
 scfdamp=0.0d0
 scfdamp_mode=off
 scfdamp_end=50
 scfdamp_dampstep=0.d0
 scfdamp_dtol=0.0d0
 scfdamp_maxfact=0.0d0
 scfdamp_minfact=0.0d0
 scfdiis=on
 scfdiis_dtol=0.0d0
 scfdiis_end=50
 scfdiis_start=2
 scfdiis_step=1
 scfdiis_watch=off
 scfdiis_wrange=10
 scfdiis_wlimit=5
 scfdiis_delmax=2
 scfdtol=7
 scfext=10
 scfguessdens=
 scfiguess=sad
 scfloc=off
 scflshift=0.20
 scflshift_end=8
 scflshift_dtol=0.0
 scflshift_gaptol=0.20
 scfmaxit=50
 scftype=
 scftol=6
 scspe=1.d0
 scsph=1.d0
 scsps=1.2d0
 scsps_t=1.2d0
 scspt=0.33333333333333
 scspt_t=0.33333333333333
 scspv=1.d0
 spairtol=1e-4
 sqmprog=
 subminp=top
 subsys_bopu=on
 symm=
 talg=occ
 temp=298.15
 test=off
 theodore=off
 tlmo=0.999
 tpao=0.94
 tprint=off
 uncontract=off
 unit=angs
 usedisk=2
 verbosity=2
 wpairtol=0.100000000E-05

 ************************ 2026-06-07 00:29:56 *************************
 Executing goldstone...

 Generation of CC equations in terms of H and T...
 Generation of antisymmetrized Goldstone diagrams...
 Number of diagrams in T^1 equations:    14
 Number of diagrams in T^2 equations:    31
 Translation of diagrams to factorized equations...
 Optimizing intermediate calculation...
 Number of floating-point operations per iteration step:   9.1555E+06
 Probable CPU time per iteration step (hours):      0.00
 Required memory (Mbytes):      32.7
 Number of intermediates:                                  43
 Number of intermediates to be stored:                     20
 Length of intermediate file (Mbytes):       2.1

 ************************ 2026-06-07 00:29:56 *************************
 Executing xmrcc...

 **********************************************************************
 CC(                     2 ) calculation 
 
 
 Allocation of7500.0 Mbytes of memory...
 Number of spinorbitals:                   108
 Number of alpha electrons:                       10
 Number of beta electrons:                         0
 Spin multiplicity:                     2
 z-component of spin:  5.0
 Spatial symmetry:                      1
 Convergence criterion:  1.0E-06
 Construction of occupation graphs...
 Number of                     0 -fold excitations:                      1
 Number of                     1 -fold excitations:                    220
 Number of                     2 -fold excitations:                  21340
 Total number of configurations:                  21561
 Calculation of coupling coefficients...
 Length of intermediate file (Mbytes):       8.6
 
 ======================================================================
 
 Memory requirements /Mbyte/: 
               Minimal        Optimal
 Real*8:         26.0441        82.4345
 Integer:         0.3503
 Total:          26.3944        82.7847
 

 ************************ 2026-06-07 00:29:56 *************************
 Executing mrcc...

 **********************************************************************
 CCSD calculation                                                       
 
 
 OpenMP parallel version is running.
 Number of CPU cores:  12
 Allocation of   82.4 Mbytes of memory...
 Number of spinors:  54
 Number of electrons: 10
 Spin multiplicity:11
 z-component of spin:  5.0
 Spatial symmetry: 1
 Convergence criterion:  1.0E-06
 Construction of occupation graphs...
 Number of 0-fold excitations: 1
 Number of 1-fold excitations: 220
 Number of 2-fold excitations: 21340
 Total number of determinants: 21561
 Calculation of coupling coefficients...
 Initial cluster amplitudes are generated.
 Length of intermediate file (Mbytes):       8.6
 Reading integral list from files MRCONEE and MDCINT...
 Sorting integrals...
 Energy of reference determinant [au]:    -112.201228048811
 Calculation of MP denominators...
 
 Starting CC iteration...
 ======================================================================
 Norm of residual vector:     3.90947204
 CPU time [min]:     0.095                   Wall time [min]:     0.008
 
 Iteration  1  CC energy:  -122.95618041  Energy decrease:  10.75495236
 ======================================================================
 Norm of residual vector:     3.02233936
 CPU time [min]:     0.152                   Wall time [min]:     0.013
 
 Iteration  2  CC energy:  -121.05933448  Energy decrease:   1.89684593
 ======================================================================
 Norm of residual vector:     2.45143028
 CPU time [min]:     0.215                   Wall time [min]:     0.018
 
 Iteration  3  CC energy:  -121.13525674  Energy decrease:   0.07592226
 ======================================================================
 Norm of residual vector:     1.44637246
 CPU time [min]:     0.279                   Wall time [min]:     0.023
 
 Iteration  4  CC energy:  -122.18860826  Energy decrease:   1.05335152
 ======================================================================
 Norm of residual vector:     0.79752655
 CPU time [min]:     0.338                   Wall time [min]:     0.028
 
 Iteration  5  CC energy:  -122.76961501  Energy decrease:   0.58100675
 ======================================================================
 Norm of residual vector:     0.63783338
 CPU time [min]:     0.395                   Wall time [min]:     0.033
 
 Iteration  6  CC energy:  -122.44833210  Energy decrease:   0.32128291
 ======================================================================
 Norm of residual vector:     0.31451549
 CPU time [min]:     0.451                   Wall time [min]:     0.038
 
 Iteration  7  CC energy:  -122.34105390  Energy decrease:   0.10727820
 ======================================================================
 Norm of residual vector:     0.16533725
 CPU time [min]:     0.508                   Wall time [min]:     0.042
 
 Iteration  8  CC energy:  -122.35201536  Energy decrease:   0.01096146
 ======================================================================
 Norm of residual vector:     0.08001205
 CPU time [min]:     0.566                   Wall time [min]:     0.047
 
 Iteration  9  CC energy:  -122.35089592  Energy decrease:   0.00111943
 ======================================================================
 Norm of residual vector:     0.03982259
 CPU time [min]:     0.636                   Wall time [min]:     0.053
 
 Iteration 10  CC energy:  -122.35040009  Energy decrease:   0.00049584
 ======================================================================
 Norm of residual vector:     0.02091473
 CPU time [min]:     0.714                   Wall time [min]:     0.060
 
 Iteration 11  CC energy:  -122.36057437  Energy decrease:   0.01017429
 ======================================================================
 Norm of residual vector:     0.01292976
 CPU time [min]:     0.790                   Wall time [min]:     0.066
 
 Iteration 12  CC energy:  -122.36199818  Energy decrease:   0.00142381
 ======================================================================
 Norm of residual vector:     0.00882744
 CPU time [min]:     0.849                   Wall time [min]:     0.071
 
 Iteration 13  CC energy:  -122.35971505  Energy decrease:   0.00228314
 ======================================================================
 Norm of residual vector:     0.00493033
 CPU time [min]:     0.910                   Wall time [min]:     0.076
 
 Iteration 14  CC energy:  -122.35781282  Energy decrease:   0.00190223
 ======================================================================
 Norm of residual vector:     0.00271429
 CPU time [min]:     0.969                   Wall time [min]:     0.081
 
 Iteration 15  CC energy:  -122.35679085  Energy decrease:   0.00102197
 ======================================================================
 Norm of residual vector:     0.00158599
 CPU time [min]:     1.033                   Wall time [min]:     0.086
 
 Iteration 16  CC energy:  -122.35669221  Energy decrease:   0.00009864
 ======================================================================
 Norm of residual vector:     0.00089122
 CPU time [min]:     1.091                   Wall time [min]:     0.091
 
 Iteration 17  CC energy:  -122.35691046  Energy decrease:   0.00021825
 ======================================================================
 Norm of residual vector:     0.00046682
 CPU time [min]:     1.164                   Wall time [min]:     0.097
 
 Iteration 18  CC energy:  -122.35686027  Energy decrease:   0.00005020
 ======================================================================
 Norm of residual vector:     0.00025526
 CPU time [min]:     1.228                   Wall time [min]:     0.103
 
 Iteration 19  CC energy:  -122.35677786  Energy decrease:   0.00008241
 ======================================================================
 Norm of residual vector:     0.00016220
 CPU time [min]:     1.292                   Wall time [min]:     0.108
 
 Iteration 20  CC energy:  -122.35672540  Energy decrease:   0.00005246
 ======================================================================
 Norm of residual vector:     0.00009040
 CPU time [min]:     1.354                   Wall time [min]:     0.113
 
 Iteration 21  CC energy:  -122.35673117  Energy decrease:   0.00000577
 ======================================================================
 Norm of residual vector:     0.00004811
 CPU time [min]:     1.414                   Wall time [min]:     0.118
 
 Iteration 22  CC energy:  -122.35675062  Energy decrease:   0.00001945
 ======================================================================
 Norm of residual vector:     0.00002842
 CPU time [min]:     1.475                   Wall time [min]:     0.123
 
 Iteration 23  CC energy:  -122.35675812  Energy decrease:   0.00000750
 ======================================================================
 Norm of residual vector:     0.00001510
 CPU time [min]:     1.541                   Wall time [min]:     0.129
 
 Iteration 24  CC energy:  -122.35675648  Energy decrease:   0.00000164
 ======================================================================
 Norm of residual vector:     0.00000805
 CPU time [min]:     1.604                   Wall time [min]:     0.134
 
 Iteration 25  CC energy:  -122.35675305  Energy decrease:   0.00000343
 ======================================================================
 Norm of residual vector:     0.00000388
 CPU time [min]:     1.671                   Wall time [min]:     0.139
 
 Iteration 26  CC energy:  -122.35675326  Energy decrease:   0.00000021
 ======================================================================
 Norm of residual vector:     0.00000191
 CPU time [min]:     1.752                   Wall time [min]:     0.146
 
 Iteration 27  CC energy:  -122.35675421  Energy decrease:   0.00000094
 ======================================================================
 Norm of residual vector:     0.00000104
 CPU time [min]:     1.819                   Wall time [min]:     0.152
 
 Iteration 28  CC energy:  -122.35675426  Energy decrease:   0.00000006
 ======================================================================
 Norm of residual vector:     0.00000054
 CPU time [min]:     1.886                   Wall time [min]:     0.157
 
 Iteration 29  CC energy:  -122.35675420  Energy decrease:   0.00000007
 ======================================================================
 
 Iteration has converged in 29 steps.
 
 Final results:
 Total CCSD energy [au]:                     -122.356754196691
 
 ************************ 2026-06-07 00:30:06 *************************
                      Normal termination of mrcc.
 **********************************************************************
