

 Parallel Execution: Process Information
 ==============================================================================
 Rank   Node Name                              NodeID   MyNodeRank  NodeMaster
    0   ubuntu-kch                                0          0          0
    1   ubuntu-kch                                0          1         -1
    2   ubuntu-kch                                0          2         -1
    3   ubuntu-kch                                0          3         -1
 ==============================================================================


May use up to 7570MB of RAM as shared memory on node 0

 *******************************************************************************
 *                                                                             *
 *  --------------------------------                                           *
 *   Amsterdam Modeling Suite (AMS)              2021.105                      *
 *  --------------------------------                                           *
 *                                               r97261 2021-09-16             *
 *                                                                             *
 *                                                                             *
 *                              =================                              *
 *                              |               |                              *
 *                              |     A M S     |                              *
 *                              |               |                              *
 *                              =================                              *
 *                                                                             *
 *                                                                             *
 *   Online information and documentation:  https://www.scm.com/support/       *
 *   E-mail:  support@scm.com   info@scm.com                                   *
 *                                                                             *
 *   Scientific publications using AMS results must be properly referenced     *
 *   See the User Manuals (or the web site) for recommended citations          *
 *   The terms and conditions of the End User License Agreement apply to       *
 *   the use of AMS, https://www.scm.com/license-terms/                        *
 *                                                                             *
 **********************  x86_64_linux_intel / intelmpi  ************************
 
 Licensed to: Dr. Miroslav Ilias / Matej Bel University, Department Chemistry, Fac. Natural Sciences / Banska Bystrica / SLOVAKIA
 SCM User ID: u17848
  
 AMS 2021.105  RunTime: Nov24-2021 12:13:12  ShM Nodes: 1  Procs: 4

 AMS jobname: ams
 AMS jobid  : 129346542

 Start   directory: /home/milias/work/projects/open-collection/theoretical_chemistry/projects/nmr_diplomovky/derivaty_markerov/derivative_1_Martin/ams/nonrel/geometry_optimization/geopt_pbe0_tzp_good_cosmo-chcl3/tmp.milias.162968.0.noindex/
 Results directory: /home/milias/work/projects/open-collection/theoretical_chemistry/projects/nmr_diplomovky/derivaty_markerov/derivative_1_Martin/ams/nonrel/geometry_optimization/geopt_pbe0_tzp_good_cosmo-chcl3/der1.geopt_pbe0_tzp_good_cosmo-chcl3.results/
 Scratch directory: /tmp/amstmp_ams_kid0.129346542/


 Communication costs MPI_COMM_WORLD:      0.284 usec per message,   0.0034 usec per 8-byte item
 Communication costs for intra-node:      0.260 usec per message,   0.0034 usec per 8-byte item

 RNG seed: -626537933 1848949166 -405878448 -1643247642 388711355 -1150863072 -245870090 -1688865509



                      ************************************************************************
                      *  ADF 2021.105  RunTime: Nov24-2021 12:13:13  ShM Nodes: 1  Procs: 4  *
                      ************************************************************************
  
       ***************************
       *  GEOMETRY OPTIMIZATION  *
       ***************************

Optimization Method                    Quasi Newton
Optimization Coordinates               Delocalized Coordinates
Optimize lattice                       F
 
 ------------------------------------------------------
 Convergence criteria (Hartree,Angstrom)
 ------------------------------------------------------
 Maximum gradient               0.001000000000
 Maximum rms gradient           0.000666666667
 Maximum step allowed           0.001000000000
 Maximum rms step allowed       0.000666666667
 Maximum energy change allowe   0.000430000000
 Maximum stress energy allowe   0.000500000000
 
Initial model Hessian                  Automatic Hessian
 
------------------------------------
Quasi-Newton Optimizer Parameters
------------------------------------
Hessian Update Method                  BFGS
Maximum number of steps                  258
First GDIIS cycle                          0
Maximum GDIIS vectors                      0
Trust radius (bohr)                        0.200000
Trust radius varies                        T
Constraints converged at all steps         T
Use projector                              T
 
 Rigid motions settings for: old optimizer
 Atomic rotations (x,y,z):     T T T
 Atomic translations (x,y,z):  T T T
 Tolerance:                   1.000000000000000E-006
 
--------
Geometry
--------
Formula: C12H26NO2PS
Atoms
  Index Symbol   x (angstrom)   y (angstrom)   z (angstrom)
      1      S     3.19318870     1.73125839     1.04763584       adf.R=1.792
      2      P     2.21925839     0.64045706    -0.51529863       adf.R=1.850
      3      O     0.81663722     1.42761334    -0.79033812       adf.R=1.517
      4      O     1.49956399    -0.57026988     0.32488599       adf.R=1.517
      5      C    -0.28127728     0.94381481     0.02815392       adf.R=1.700
      6      C     0.05637680    -0.56483679     0.19305589       adf.R=1.700
      7      C    -0.28166396     1.70216237     1.34498429       adf.R=1.700
      8      C    -1.56010753     1.21347673    -0.73503951       adf.R=1.700
      9      C    -0.29841967    -1.38984727    -1.03398133       adf.R=1.700
     10      C    -0.52181591    -1.19660853     1.44117405       adf.R=1.700
     11      H    -1.17086656     1.45759391     1.92677359       adf.R=1.350
     12      H     0.59509564     1.47604677     1.95234872       adf.R=1.350
     13      H    -0.29191982     2.77242901     1.13850858       adf.R=1.350
     14      H    -1.51361876     0.81673563    -1.74747188       adf.R=1.350
     15      H    -2.40906377     0.76149184    -0.21900127       adf.R=1.350
     16      H    -1.73345843     2.28845059    -0.79224425       adf.R=1.350
     17      H    -1.37788592    -1.50843601    -1.12951093       adf.R=1.350
     18      H     0.08334295    -0.93393389    -1.94874497       adf.R=1.350
     19      H     0.14630653    -2.37998566    -0.93182103       adf.R=1.350
     20      H    -1.61150497    -1.13513813     1.42406017       adf.R=1.350
     21      H    -0.24428038    -2.25030950     1.48009777       adf.R=1.350
     22      H    -0.15686683    -0.71024572     2.34367560       adf.R=1.350
     23      C     4.83713294     1.82260980     0.27603379       adf.R=1.700
     24      C     5.70615759     0.62684463     0.62364559       adf.R=1.700
     25      N     7.03256611     0.73976829     0.05302904       adf.R=1.608
     26      C     7.84622656     1.76752923     0.70341347       adf.R=1.700
     27      C     8.30304743     2.86607123    -0.24030730       adf.R=1.700
     28      C     8.92792392    -0.53106886    -0.92055971       adf.R=1.700
     29      C     7.70120412    -0.54877614    -0.03011182       adf.R=1.700
     30      H     4.71786699     1.90638198    -0.80561856       adf.R=1.350
     31      H     5.27166548     2.75585948     0.63461340       adf.R=1.350
     32      H     5.23206137    -0.27012255     0.21692948       adf.R=1.350
     33      H     5.72712036     0.50269919     1.72047546       adf.R=1.350
     34      H     7.98394902    -0.91574004     0.97309101       adf.R=1.350
     35      H     6.98319337    -1.26659549    -0.43334708       adf.R=1.350
     36      H     8.66691834    -0.20808395    -1.93004399       adf.R=1.350
     37      H     9.35966167    -1.53200433    -0.97810113       adf.R=1.350
     38      H     9.70070292     0.13807844    -0.53810654       adf.R=1.350
     39      H     8.72002366     1.30111592     1.17383806       adf.R=1.350
     40      H     7.27611352     2.21358507     1.52499080       adf.R=1.350
     41      H     8.90418115     2.45799501    -1.05412208       adf.R=1.350
     42      H     8.90491016     3.60599923     0.29308005       adf.R=1.350
     43      H     7.44597408     3.37702898    -0.68303847       adf.R=1.350
 
Total System Charge             0.00000
Bonding info available!
 
 
----------------
ADF Engine Input
----------------
 
 Basis
 Type TZP
 Core None
 End
 Save TAPE10
 XC
 Hybrid PBE0
 End
 Relativity
 Level None
 End
 Symmetry NOSYM
 Solvation
 Surf Delley
 Solv name=Chloroform cav0=0.0 cav1=0.0067639
 Charged method=CONJ
 C-Mat POT
 SCF VAR ALL
 CSMRSP
 End
 NumericalQuality Good
 UseSPCode Yes
 

 Title: *** (NO TITLE) ***

 Using automatic Hessian for delocalized coordinates.
 *** GOStep1 ***

 SOLVATION
-------------------------------------------

  The Delley construction of COSMO surface surface is calculated

       Division Level for Surface Triangles (NDIV)                  3
       Final Division Level for Triangles (NFDIV)                   1
       Radius of the Solvent (RSOL)                           3.17000 angstr
  Dielectric Constant (EPSL)                                  4.80000

       COSMO equation is solved iteratively-               conjugate-gradient

       Maximun of Iterations for Charges (NCIX)                  1000
       Criterion for Charge convergence (CCNV)                1.0E-08

  COSMO charges included variationally in SCF

       COSMO included at every SCF cycle

  Geometry-dependent empirical factor                         0.00000

  C-Matrix calculated in cspmtx

  In cspmtx, C-Matrix calculated using fitted potential

-------------------------------------------



 -------------------------------------------
  COSMO surface
  Area             =         1121.255
  Volume           =         2396.048
  Number of Points =         2631
 -------------------------------------------



 ======================
 RI Hartree-Fock Scheme
 ======================
  
 Fit Set Quality     : GOOD
 Integration Quality : GOOD
 Threshold Quality   : GOOD
 Response Quality    : DEFAULT
 Is Range Separated  :  F
 
 RIHartreeFock Dependency: number of modified vectors:          32
 cosmo_calcen: 0.5 (esolb+esolc) (Hartrees) =   -0.010180

 Solvation energy (screening term,uncorrected) =     -6.387890 kcal/mol

 Solvation energy (dispersion and cavitation terms) =      1.681303 kcal/mol
 Solvation Energy Contributions (Hartrees)
          esola   esolb+esolc
     0.01017975   -0.02035950
 esol last cycle   -0.01017975
  
 Hartree-Fock exchange energy:   -142.304070016960     
 cosmo_calcen: 0.5 (esolb+esolc) (Hartrees) =   -0.010180

 Solvation energy (screening term,uncorrected) =     -6.387891 kcal/mol

 Solvation energy (dispersion and cavitation terms) =      1.681303 kcal/mol
 Solvation Energy Contributions (Hartrees)
          esola   esolb+esolc
     0.01017975   -0.02035950
 esol last cycle   -0.01017975
  pauli hf:                              4.006327850920499        109.0177          2514.01         10518.61
  elstat hf:                            -4.298516673477135       -116.9686         -2697.36        -11285.75

 Energy gradients wrt nuclear displacements
 ==========================================

     Atom      Cartesian (a.u./angstrom)
                 X         Y         Z
 ----------------------------------------
     1 S     0.001093 -0.002332 -0.005311
     2 P    -0.008278  0.000604  0.006724
     3 O     0.004632 -0.007315  0.004800
     4 O    -0.001344  0.007860 -0.005958
     5 C     0.002200  0.002040 -0.003020
     6 C     0.003903 -0.001026  0.001364
     7 C    -0.000052 -0.000070  0.000157
     8 C     0.000035 -0.000042  0.000292
     9 C    -0.000148  0.000010  0.000036
    10 C    -0.000057 -0.000013 -0.000238
    11 H     0.000672  0.000157 -0.000444
    12 H    -0.000629  0.000220 -0.000486
    13 H     0.000006 -0.000826  0.000134
    14 H    -0.000049  0.000319  0.000803
    15 H     0.000595  0.000304 -0.000435
    16 H     0.000166 -0.000829  0.000040
    17 H     0.000863  0.000092  0.000071
    18 H    -0.000344 -0.000374  0.000665
    19 H    -0.000329  0.000732 -0.000013
    20 H     0.000817 -0.000036  0.000111
    21 H    -0.000158  0.000801 -0.000041
    22 H    -0.000309 -0.000413 -0.000684
    23 C    -0.002058  0.000183  0.001405
    24 C     0.001125  0.000526 -0.001916
    25 N     0.000521 -0.001453  0.004183
    26 C    -0.000947 -0.000632 -0.001479
    27 C     0.000083  0.000123 -0.000024
    28 C     0.000080  0.000006  0.000057
    29 C    -0.000834  0.001465 -0.000938
    30 H    -0.000054 -0.000190  0.000793
    31 H    -0.000322 -0.000717 -0.000239
    32 H     0.000245  0.000576  0.000321
    33 H    -0.000000  0.000156 -0.000687
    34 H    -0.000179  0.000324 -0.000593
    35 H     0.000413  0.000440  0.000277
    36 H     0.000146 -0.000235  0.000774
    37 H    -0.000335  0.000718  0.000051
    38 H    -0.000607 -0.000486 -0.000273
    39 H    -0.000522  0.000243 -0.000354
    40 H     0.000291 -0.000230 -0.000546
    41 H    -0.000481  0.000303  0.000642
    42 H    -0.000474 -0.000553 -0.000402
    43 H     0.000623 -0.000430  0.000381
 ----------------------------------------
 Mulliken charges used for AMS results%charges...
 
----------------------------------------------------------------------
Geometry Convergence after Step   1       (Hartree/Angstrom,Angstrom)
----------------------------------------------------------------------
current energy                              -10.54733616 Hartree
energy change                     -10.54733616     0.00043000    F
constrained gradient max            0.00827741     0.00100000    F
constrained gradient rms            0.00184200     0.00066667    F
gradient max                        0.00827741
gradient rms                        0.00184200
cart. step max                      0.04075800     0.00100000    F
cart. step rms                      0.01506285     0.00066667    F
 
 
--------
Geometry
--------
Formula: C12H26NO2PS
Atoms
  Index Symbol   x (angstrom)   y (angstrom)   z (angstrom)
      1      S     3.19826066     1.69905817     1.06382074       adf.R=1.792
      2      P     2.21642511     0.62074121    -0.50668511       adf.R=1.850
      3      O     0.81900743     1.42611644    -0.78306240       adf.R=1.517
      4      O     1.48308869    -0.58976914     0.33100903       adf.R=1.517
      5      C    -0.28551788     0.94513860     0.03242068       adf.R=1.700
      6      C     0.03833368    -0.56772365     0.19117865       adf.R=1.700
      7      C    -0.28367794     1.69817939     1.35280539       adf.R=1.700
      8      C    -1.56025099     1.22852956    -0.73376001       adf.R=1.700
      9      C    -0.31794721    -1.38418903    -1.04171082       adf.R=1.700
     10      C    -0.55220276    -1.19932118     1.43426305       adf.R=1.700
     11      H    -1.17716234     1.45868130     1.93099387       adf.R=1.350
     12      H     0.58947036     1.46184991     1.96230572       adf.R=1.350
     13      H    -0.28418617     2.76982784     1.15081890       adf.R=1.350
     14      H    -1.51396953     0.83533141    -1.74810421       adf.R=1.350
     15      H    -2.41459411     0.78110975    -0.22169531       adf.R=1.350
     16      H    -1.72494872     2.30553708    -0.78701645       adf.R=1.350
     17      H    -1.39845615    -1.49206116    -1.14350418       adf.R=1.350
     18      H     0.07332976    -0.92763299    -1.95267096       adf.R=1.350
     19      H     0.11694655    -2.37940805    -0.94173333       adf.R=1.350
     20      H    -1.64159903    -1.12721585     1.41175654       adf.R=1.350
     21      H    -0.28503838    -2.25627299     1.47035987       adf.R=1.350
     22      H    -0.18694524    -0.71982711     2.34089232       adf.R=1.350
     23      C     4.83988480     1.79910659     0.28353907       adf.R=1.700
     24      C     5.72318742     0.61342685     0.63244505       adf.R=1.700
     25      N     7.04521857     0.73753114     0.05030807       adf.R=1.608
     26      C     7.85128484     1.77822856     0.69243359       adf.R=1.700
     27      C     8.29504074     2.87455404    -0.26086213       adf.R=1.700
     28      C     8.95273743    -0.52414758    -0.91509645       adf.R=1.700
     29      C     7.72900793    -0.54534944    -0.01973902       adf.R=1.700
     30      H     4.71523159     1.87772575    -0.79834781       adf.R=1.350
     31      H     5.26820418     2.73811080     0.63591359       adf.R=1.350
     32      H     5.25561876    -0.29100731     0.23374167       adf.R=1.350
     33      H     5.75316290     0.49568353     1.73016865       adf.R=1.350
     34      H     8.01939097    -0.89755229     0.98699847       adf.R=1.350
     35      H     7.01778264    -1.27628945    -0.41228570       adf.R=1.350
     36      H     8.68458178    -0.21612698    -1.92787709       adf.R=1.350
     37      H     9.39600961    -1.52105578    -0.96232477       adf.R=1.350
     38      H     9.71947725     0.15856603    -0.54328980       adf.R=1.350
     39      H     8.73111652     1.32348043     1.16389715       adf.R=1.350
     40      H     7.27896875     2.22458649     1.51280272       adf.R=1.350
     41      H     8.89813322     2.46617011    -1.07372340       adf.R=1.350
     42      H     8.89154388     3.62441341     0.26558018       adf.R=1.350
     43      H     7.43167164     3.37435976    -0.70527806       adf.R=1.350
 
Total System Charge             0.00000
Bonding info available!
 
 *** GOStep2 ***

 SOLVATION
-------------------------------------------

  The Delley construction of COSMO surface surface is calculated

       Division Level for Surface Triangles (NDIV)                  3
       Final Division Level for Triangles (NFDIV)                   1
       Radius of the Solvent (RSOL)                           3.17000 angstr
  Dielectric Constant (EPSL)                                  4.80000

       COSMO equation is solved iteratively-               conjugate-gradient

       Maximun of Iterations for Charges (NCIX)                  1000
       Criterion for Charge convergence (CCNV)                1.0E-08

  COSMO charges included variationally in SCF

       COSMO included at every SCF cycle

  Geometry-dependent empirical factor                         0.00000

  C-Matrix calculated in cspmtx

  In cspmtx, C-Matrix calculated using fitted potential

-------------------------------------------



 -------------------------------------------
  COSMO surface
  Area             =         1122.817
  Volume           =         2402.035
  Number of Points =         2627
 -------------------------------------------



 ======================
 RI Hartree-Fock Scheme
 ======================
  
 Fit Set Quality     : GOOD
 Integration Quality : GOOD
 Threshold Quality   : GOOD
 Response Quality    : DEFAULT
 Is Range Separated  :  F
 
 RIHartreeFock Dependency: number of modified vectors:          32
 cosmo_calcen: 0.5 (esolb+esolc) (Hartrees) =   -0.010249

 Solvation energy (screening term,uncorrected) =     -6.431470 kcal/mol

 Solvation energy (dispersion and cavitation terms) =      1.683647 kcal/mol
 Solvation Energy Contributions (Hartrees)
          esola   esolb+esolc
     0.01024920   -0.02049840
 esol last cycle   -0.01024920
  
 Hartree-Fock exchange energy:   -142.287179371340     
 cosmo_calcen: 0.5 (esolb+esolc) (Hartrees) =   -0.010249

 Solvation energy (screening term,uncorrected) =     -6.431470 kcal/mol

 Solvation energy (dispersion and cavitation terms) =      1.683647 kcal/mol
 Solvation Energy Contributions (Hartrees)
          esola   esolb+esolc
     0.01024920   -0.02049840
 esol last cycle   -0.01024920
  pauli hf:                              4.016707088698872        109.3002          2520.52         10545.86
  elstat hf:                            -4.288732666008304       -116.7024         -2691.22        -11260.07

 Energy gradients wrt nuclear displacements
 ==========================================

     Atom      Cartesian (a.u./angstrom)
                 X         Y         Z
 ----------------------------------------
     1 S     0.000427 -0.001034 -0.003515
     2 P    -0.004117  0.000537  0.004480
     3 O     0.002144 -0.002745  0.001808
     4 O    -0.000342  0.002830 -0.002998
     5 C     0.001127  0.001332 -0.001705
     6 C     0.002428 -0.000799  0.000960
     7 C    -0.000236 -0.000047  0.000142
     8 C     0.000124  0.000027  0.000221
     9 C    -0.000167 -0.000056  0.000003
    10 C    -0.000101  0.000073 -0.000193
    11 H     0.000232  0.000050 -0.000104
    12 H    -0.000198  0.000080 -0.000132
    13 H    -0.000033 -0.000204  0.000057
    14 H    -0.000039  0.000079  0.000213
    15 H     0.000216  0.000077 -0.000138
    16 H     0.000015 -0.000240 -0.000019
    17 H     0.000253  0.000013  0.000020
    18 H    -0.000092 -0.000146  0.000213
    19 H    -0.000094  0.000183 -0.000015
    20 H     0.000260 -0.000017  0.000068
    21 H    -0.000038  0.000231  0.000022
    22 H    -0.000092 -0.000125 -0.000158
    23 C    -0.001894 -0.000273  0.000954
    24 C     0.001410  0.000567 -0.001207
    25 N     0.000212 -0.000728  0.002071
    26 C    -0.000809 -0.000857 -0.001032
    27 C     0.000066  0.000101 -0.000018
    28 C     0.000041 -0.000103  0.000057
    29 C    -0.000449  0.001308 -0.000511
    30 H     0.000053  0.000037  0.000234
    31 H    -0.000027 -0.000295 -0.000019
    32 H     0.000034  0.000152  0.000147
    33 H    -0.000189  0.000051 -0.000063
    34 H     0.000060 -0.000056 -0.000100
    35 H     0.000167  0.000125  0.000120
    36 H     0.000044 -0.000069  0.000226
    37 H    -0.000073  0.000222  0.000000
    38 H    -0.000191 -0.000147 -0.000084
    39 H    -0.000097  0.000076 -0.000064
    40 H     0.000051 -0.000057 -0.000084
    41 H    -0.000146  0.000110  0.000186
    42 H    -0.000148 -0.000149 -0.000138
    43 H     0.000206 -0.000115  0.000093
 ----------------------------------------
 Mulliken charges used for AMS results%charges...

 dE(predicted):    -0.94396E-04, dE(actual):    -0.12915E-03, Trust radius:    0.200000, all in a.u.
 
----------------------------------------------------------------------
Geometry Convergence after Step   2       (Hartree/Angstrom,Angstrom)
----------------------------------------------------------------------
current energy                              -10.54746530 Hartree
energy change                      -0.00012915     0.00043000    T
constrained gradient max            0.00447824     0.00100000    F
constrained gradient rms            0.00094965     0.00066667    F
gradient max                        0.00447824
gradient rms                        0.00094965
cart. step max                      0.03704964     0.00100000    F
cart. step rms                      0.01376040     0.00066667    F
 
 
--------
Geometry
--------
Formula: C12H26NO2PS
Atoms
  Index Symbol   x (angstrom)   y (angstrom)   z (angstrom)
      1      S     3.20045124     1.67587028     1.07338592       adf.R=1.792
      2      P     2.21417235     0.61273756    -0.50960986       adf.R=1.850
      3      O     0.81612785     1.42860843    -0.77874016       adf.R=1.517
      4      O     1.47297429    -0.59955368     0.32737982       adf.R=1.517
      5      C    -0.28952915     0.94623242     0.03853252       adf.R=1.700
      6      C     0.02627248    -0.56922541     0.18367708       adf.R=1.700
      7      C    -0.27758542     1.69005378     1.36426143       adf.R=1.700
      8      C    -1.56529059     1.24213889    -0.72215248       adf.R=1.700
      9      C    -0.33048744    -1.37358433    -1.05726065       adf.R=1.700
     10      C    -0.56844761    -1.20889445     1.42113508       adf.R=1.700
     11      H    -1.17103900     1.45282676     1.94405442       adf.R=1.350
     12      H     0.59629013     1.44309724     1.96906585       adf.R=1.350
     13      H    -0.27106309     2.76332150     1.16956655       adf.R=1.350
     14      H    -1.52400199     0.85565429    -1.73961991       adf.R=1.350
     15      H    -2.42089566     0.79584026    -0.21047612       adf.R=1.350
     16      H    -1.72408946     2.32070615    -0.76726177       adf.R=1.350
     17      H    -1.41150982    -1.47641426    -1.16230045       adf.R=1.350
     18      H     0.06473412    -0.91033447    -1.96351933       adf.R=1.350
     19      H     0.10051728    -2.37155913    -0.96498501       adf.R=1.350
     20      H    -1.65782613    -1.13199140     1.39766121       adf.R=1.350
     21      H    -0.30574085    -2.26753655     1.44878220       adf.R=1.350
     22      H    -0.20213205    -0.73813792     2.33227586       adf.R=1.350
     23      C     4.84085215     1.78485856     0.28649791       adf.R=1.700
     24      C     5.73359743     0.60782468     0.64174203       adf.R=1.700
     25      N     7.05230925     0.73714602     0.04954519       adf.R=1.608
     26      C     7.85356018     1.79107684     0.67989772       adf.R=1.700
     27      C     8.28820745     2.87892467    -0.28762112       adf.R=1.700
     28      C     8.96818069    -0.52653714    -0.89870498       adf.R=1.700
     29      C     7.74541453    -0.54324878    -0.00134799       adf.R=1.700
     30      H     4.71198332     1.85471716    -0.79581548       adf.R=1.350
     31      H     5.26275816     2.73010954     0.63088088       adf.R=1.350
     32      H     5.27060654    -0.30361933     0.25309585       adf.R=1.350
     33      H     5.77159329     0.49989244     1.74036172       adf.R=1.350
     34      H     8.03894344    -0.87748008     1.01072410       adf.R=1.350
     35      H     7.03869506    -1.28513194    -0.38212868       adf.R=1.350
     36      H     8.69664694    -0.23580015    -1.91602573       adf.R=1.350
     37      H     9.41870725    -1.52110277    -0.93133090       adf.R=1.350
     38      H     9.73065129     0.16744168    -0.53816650       adf.R=1.350
     39      H     8.73732599     1.34727981     1.15486076       adf.R=1.350
     40      H     7.27973599     2.24333198     1.49620052       adf.R=1.350
     41      H     8.89218300     2.46451376    -1.09723424       adf.R=1.350
     42      H     8.88135855     3.63899180     0.22853054       adf.R=1.350
     43      H     7.42040928     3.36804948    -0.73612786       adf.R=1.350
 
Total System Charge             0.00000
Bonding info available!
 
 *** GOStep3 ***

 SOLVATION
-------------------------------------------

  The Delley construction of COSMO surface surface is calculated

       Division Level for Surface Triangles (NDIV)                  3
       Final Division Level for Triangles (NFDIV)                   1
       Radius of the Solvent (RSOL)                           3.17000 angstr
  Dielectric Constant (EPSL)                                  4.80000

       COSMO equation is solved iteratively-               conjugate-gradient

       Maximun of Iterations for Charges (NCIX)                  1000
       Criterion for Charge convergence (CCNV)                1.0E-08

  COSMO charges included variationally in SCF

       COSMO included at every SCF cycle

  Geometry-dependent empirical factor                         0.00000

  C-Matrix calculated in cspmtx

  In cspmtx, C-Matrix calculated using fitted potential

-------------------------------------------



 -------------------------------------------
  COSMO surface
  Area             =         1124.819
  Volume           =         2404.224
  Number of Points =         2630
 -------------------------------------------



 ======================
 RI Hartree-Fock Scheme
 ======================
  
 Fit Set Quality     : GOOD
 Integration Quality : GOOD
 Threshold Quality   : GOOD
 Response Quality    : DEFAULT
 Is Range Separated  :  F
 
 RIHartreeFock Dependency: number of modified vectors:          32
 cosmo_calcen: 0.5 (esolb+esolc) (Hartrees) =   -0.010326

 Solvation energy (screening term,uncorrected) =     -6.479817 kcal/mol

 Solvation energy (dispersion and cavitation terms) =      1.686647 kcal/mol
 Solvation Energy Contributions (Hartrees)
          esola   esolb+esolc
     0.01032625   -0.02065249
 esol last cycle   -0.01032625
  
 Hartree-Fock exchange energy:   -142.273027429703     
 cosmo_calcen: 0.5 (esolb+esolc) (Hartrees) =   -0.010326

 Solvation energy (screening term,uncorrected) =     -6.479820 kcal/mol

 Solvation energy (dispersion and cavitation terms) =      1.686647 kcal/mol
 Solvation Energy Contributions (Hartrees)
          esola   esolb+esolc
     0.01032625   -0.02065250
 esol last cycle   -0.01032625
  pauli hf:                              4.021069369849357        109.4189          2523.26         10557.32
  elstat hf:                            -4.280392005408547       -116.4754         -2685.99        -11238.17

 Energy gradients wrt nuclear displacements
 ==========================================

     Atom      Cartesian (a.u./angstrom)
                 X         Y         Z
 ----------------------------------------
     1 S    -0.000362 -0.000153 -0.000719
     2 P     0.001895  0.000240  0.000291
     3 O    -0.000215  0.000200  0.000276
     4 O    -0.000095  0.000035 -0.000163
     5 C    -0.000385  0.000707 -0.000089
     6 C     0.000013 -0.000702  0.000295
     7 C     0.000004  0.000083  0.000071
     8 C    -0.000032 -0.000122  0.000010
     9 C    -0.000093 -0.000127 -0.000082
    10 C    -0.000049  0.000083  0.000035
    11 H    -0.000063 -0.000046  0.000080
    12 H     0.000219  0.000022  0.000127
    13 H    -0.000011  0.000190 -0.000015
    14 H    -0.000033 -0.000070 -0.000174
    15 H    -0.000125 -0.000060  0.000051
    16 H    -0.000014  0.000138 -0.000001
    17 H    -0.000131 -0.000023 -0.000003
    18 H     0.000116  0.000025 -0.000127
    19 H     0.000073 -0.000172 -0.000001
    20 H    -0.000127 -0.000000  0.000019
    21 H     0.000045 -0.000164  0.000043
    22 H     0.000051  0.000046  0.000182
    23 C    -0.000993 -0.000350 -0.000111
    24 C     0.000732 -0.000273 -0.000183
    25 N    -0.000018  0.000259  0.000078
    26 C    -0.000314 -0.000395 -0.000242
    27 C     0.000032  0.000070 -0.000023
    28 C    -0.000000  0.000016 -0.000035
    29 C    -0.000442  0.000389 -0.000033
    30 H     0.000071  0.000154 -0.000166
    31 H     0.000063  0.000190  0.000143
    32 H    -0.000079 -0.000207 -0.000021
    33 H    -0.000141 -0.000015  0.000272
    34 H     0.000134 -0.000142  0.000207
    35 H    -0.000067 -0.000169 -0.000002
    36 H    -0.000015  0.000045 -0.000170
    37 H     0.000046 -0.000119  0.000030
    38 H     0.000115  0.000107  0.000037
    39 H     0.000187  0.000009  0.000119
    40 H    -0.000035  0.000133  0.000185
    41 H     0.000087 -0.000036 -0.000135
    42 H     0.000071  0.000121  0.000052
    43 H    -0.000114  0.000086 -0.000107
 ----------------------------------------
 Mulliken charges used for AMS results%charges...

 dE(predicted):    -0.46917E-04, dE(actual):    -0.47763E-04, Trust radius:    0.200000, all in a.u.
 
----------------------------------------------------------------------
Geometry Convergence after Step   3       (Hartree/Angstrom,Angstrom)
----------------------------------------------------------------------
current energy                              -10.54751307 Hartree
energy change                      -0.00004776     0.00043000    T
constrained gradient max            0.00189610     0.00100000    F
constrained gradient rms            0.00026998     0.00066667    T
gradient max                        0.00189610
gradient rms                        0.00026998
cart. step max                      0.01750627     0.00100000    F
cart. step rms                      0.00574692     0.00066667    F
 
 
--------
Geometry
--------
Formula: C12H26NO2PS
Atoms
  Index Symbol   x (angstrom)   y (angstrom)   z (angstrom)
      1      S     3.20503660     1.67306480     1.08131517       adf.R=1.792
      2      P     2.21107126     0.61484044    -0.50173341       adf.R=1.850
      3      O     0.81400169     1.43308967    -0.77052247       adf.R=1.517
      4      O     1.46877259    -0.59829005     0.33385283       adf.R=1.517
      5      C    -0.29360970     0.94684819     0.04216644       adf.R=1.700
      6      C     0.02257200    -0.56835727     0.18337781       adf.R=1.700
      7      C    -0.28701037     1.68568787     1.37050918       adf.R=1.700
      8      C    -1.56695429     1.24474010    -0.72166928       adf.R=1.700
      9      C    -0.32813506    -1.36849689    -1.06179042       adf.R=1.700
     10      C    -0.57685273    -1.21291331     1.41592420       adf.R=1.700
     11      H    -1.18301555     1.44664353     1.94556704       adf.R=1.350
     12      H     0.58410614     1.43603933     1.97800931       adf.R=1.350
     13      H    -0.27930262     2.75958222     1.17975801       adf.R=1.350
     14      H    -1.52191430     0.86179612    -1.74024536       adf.R=1.350
     15      H    -2.42390487     0.79610483    -0.21437937       adf.R=1.350
     16      H    -1.72629242     2.32330905    -0.76354684       adf.R=1.350
     17      H    -1.40857081    -1.47222870    -1.17151178       adf.R=1.350
     18      H     0.07004286    -0.90142833    -1.96471925       adf.R=1.350
     19      H     0.10366335    -2.36622702    -0.97131159       adf.R=1.350
     20      H    -1.66615207    -1.13684798     1.38800582       adf.R=1.350
     21      H    -0.31332978    -2.27136050     1.44092514       adf.R=1.350
     22      H    -0.21482056    -0.74495625     2.33014043       adf.R=1.350
     23      C     4.84409062     1.78379342     0.29036836       adf.R=1.700
     24      C     5.73916128     0.60908938     0.64676490       adf.R=1.700
     25      N     7.05624644     0.73685715     0.04976434       adf.R=1.608
     26      C     7.85832291     1.79434850     0.67371739       adf.R=1.700
     27      C     8.28942109     2.87798641    -0.29990780       adf.R=1.700
     28      C     8.97225374    -0.52918275    -0.89553099       adf.R=1.700
     29      C     7.75086206    -0.54321980     0.00363473       adf.R=1.700
     30      H     4.71202432     1.84960253    -0.79176314       adf.R=1.350
     31      H     5.26515578     2.73085675     0.63049060       adf.R=1.350
     32      H     5.27571316    -0.30401735     0.26285626       adf.R=1.350
     33      H     5.78138125     0.50504937     1.74546597       adf.R=1.350
     34      H     8.04591182    -0.87226277     1.01681092       adf.R=1.350
     35      H     7.04429447    -1.28734152    -0.37287000       adf.R=1.350
     36      H     8.69881682    -0.24310665    -1.91360140       adf.R=1.350
     37      H     9.42378308    -1.52336156    -0.92464762       adf.R=1.350
     38      H     9.73448758     0.16712935    -0.53915626       adf.R=1.350
     39      H     8.74350295     1.35317961     1.14827314       adf.R=1.350
     40      H     7.28601307     2.24963427     1.48926340       adf.R=1.350
     41      H     8.89132293     2.46025892    -1.10930090       adf.R=1.350
     42      H     8.88348232     3.64079738     0.21102427       adf.R=1.350
     43      H     7.41997217     3.36436370    -0.74809184       adf.R=1.350
 
Total System Charge             0.00000
Bonding info available!
 
 *** GOStep4 ***

 SOLVATION
-------------------------------------------

  The Delley construction of COSMO surface surface is calculated

       Division Level for Surface Triangles (NDIV)                  3
       Final Division Level for Triangles (NFDIV)                   1
       Radius of the Solvent (RSOL)                           3.17000 angstr
  Dielectric Constant (EPSL)                                  4.80000

       COSMO equation is solved iteratively-               conjugate-gradient

       Maximun of Iterations for Charges (NCIX)                  1000
       Criterion for Charge convergence (CCNV)                1.0E-08

  COSMO charges included variationally in SCF

       COSMO included at every SCF cycle

  Geometry-dependent empirical factor                         0.00000

  C-Matrix calculated in cspmtx

  In cspmtx, C-Matrix calculated using fitted potential

-------------------------------------------



 -------------------------------------------
  COSMO surface
  Area             =         1125.612
  Volume           =         2406.266
  Number of Points =         2632
 -------------------------------------------



 ======================
 RI Hartree-Fock Scheme
 ======================
  
 Fit Set Quality     : GOOD
 Integration Quality : GOOD
 Threshold Quality   : GOOD
 Response Quality    : DEFAULT
 Is Range Separated  :  F
 
 RIHartreeFock Dependency: number of modified vectors:          32
 cosmo_calcen: 0.5 (esolb+esolc) (Hartrees) =   -0.010351

 Solvation energy (screening term,uncorrected) =     -6.495238 kcal/mol

 Solvation energy (dispersion and cavitation terms) =      1.687838 kcal/mol
 Solvation Energy Contributions (Hartrees)
          esola   esolb+esolc
     0.01035082   -0.02070164
 esol last cycle   -0.01035082
  
 Hartree-Fock exchange energy:   -142.272448673916     
 cosmo_calcen: 0.5 (esolb+esolc) (Hartrees) =   -0.010351

 Solvation energy (screening term,uncorrected) =     -6.495240 kcal/mol

 Solvation energy (dispersion and cavitation terms) =      1.687838 kcal/mol
 Solvation Energy Contributions (Hartrees)
          esola   esolb+esolc
     0.01035082   -0.02070164
 esol last cycle   -0.01035082
  pauli hf:                              4.024740080385989        109.5187          2525.56         10566.95
  elstat hf:                            -4.279971892618779       -116.4640         -2685.72        -11237.06

 Energy gradients wrt nuclear displacements
 ==========================================

     Atom      Cartesian (a.u./angstrom)
                 X         Y         Z
 ----------------------------------------
     1 S     0.000115 -0.000075 -0.000711
     2 P     0.001073  0.000348  0.000784
     3 O    -0.000591  0.000590 -0.000548
     4 O    -0.000098 -0.000803  0.000049
     5 C    -0.000141  0.000305  0.000031
     6 C    -0.000104 -0.000317  0.000122
     7 C    -0.000175 -0.000080  0.000084
     8 C     0.000052  0.000010 -0.000018
     9 C    -0.000068 -0.000034 -0.000031
    10 C     0.000039  0.000049  0.000045
    11 H    -0.000061 -0.000046  0.000073
    12 H     0.000006 -0.000011  0.000084
    13 H    -0.000003  0.000084 -0.000037
    14 H    -0.000003 -0.000060 -0.000095
    15 H    -0.000064 -0.000051  0.000058
    16 H    -0.000027  0.000090 -0.000007
    17 H    -0.000094 -0.000029  0.000002
    18 H     0.000082  0.000035 -0.000039
    19 H     0.000049 -0.000105  0.000033
    20 H    -0.000089  0.000004  0.000000
    21 H     0.000027 -0.000109  0.000040
    22 H     0.000044  0.000054  0.000104
    23 C    -0.000429 -0.000057  0.000105
    24 C     0.000276  0.000001 -0.000057
    25 N    -0.000037  0.000075 -0.000063
    26 C    -0.000102 -0.000175 -0.000005
    27 C    -0.000009  0.000037 -0.000044
    28 C     0.000040 -0.000016 -0.000045
    29 C    -0.000097  0.000127 -0.000002
    30 H     0.000075  0.000095 -0.000062
    31 H     0.000154  0.000117  0.000042
    32 H    -0.000035 -0.000113 -0.000019
    33 H    -0.000072  0.000008  0.000135
    34 H     0.000073 -0.000058  0.000116
    35 H    -0.000032 -0.000080 -0.000007
    36 H    -0.000013  0.000025 -0.000103
    37 H     0.000048 -0.000077  0.000013
    38 H     0.000070  0.000081  0.000030
    39 H     0.000114 -0.000009  0.000047
    40 H    -0.000023  0.000077  0.000086
    41 H     0.000057 -0.000024 -0.000092
    42 H     0.000041  0.000070  0.000034
    43 H    -0.000065  0.000046 -0.000135
 ----------------------------------------
 Mulliken charges used for AMS results%charges...

 dE(predicted):    -0.55526E-05, dE(actual):    -0.31777E-05, Trust radius:    0.200000, all in a.u.
 
----------------------------------------------------------------------
Geometry Convergence after Step   4       (Hartree/Angstrom,Angstrom)
----------------------------------------------------------------------
current energy                              -10.54751624 Hartree
energy change                      -0.00000318     0.00043000    T
constrained gradient max            0.00107351     0.00100000    F
constrained gradient rms            0.00019842     0.00066667    T
gradient max                        0.00107351
gradient rms                        0.00019842
cart. step max                      0.00795995     0.00100000    F
cart. step rms                      0.00252563     0.00066667    F
 
 
--------
Geometry
--------
Formula: C12H26NO2PS
Atoms
  Index Symbol   x (angstrom)   y (angstrom)   z (angstrom)
      1      S     3.20456885     1.66581365     1.08296164       adf.R=1.792
      2      P     2.21107453     0.60871473    -0.50177590       adf.R=1.850
      3      O     0.81607731     1.42905278    -0.77232152       adf.R=1.517
      4      O     1.46658446    -0.60153632     0.33548511       adf.R=1.517
      5      C    -0.29208665     0.94638143     0.04140556       adf.R=1.700
      6      C     0.02070079    -0.56902070     0.18379089       adf.R=1.700
      7      C    -0.28208880     1.68687293     1.36865547       adf.R=1.700
      8      C    -1.56519777     1.24660279    -0.72177550       adf.R=1.700
      9      C    -0.33095115    -1.36914997    -1.06097214       adf.R=1.700
     10      C    -0.58072475    -1.21181595     1.41617855       adf.R=1.700
     11      H    -1.17824212     1.45130787     1.94480945       adf.R=1.350
     12      H     0.58887138     1.43535837     1.97549237       adf.R=1.350
     13      H    -0.27134267     2.76042329     1.17651934       adf.R=1.350
     14      H    -1.52177124     0.86247999    -1.73989635       adf.R=1.350
     15      H    -2.42283649     0.80062084    -0.21343924       adf.R=1.350
     16      H    -1.72190592     2.32544485    -0.76470368       adf.R=1.350
     17      H    -1.41147985    -1.47109026    -1.17083857       adf.R=1.350
     18      H     0.06805857    -0.90329844    -1.96407796       adf.R=1.350
     19      H     0.09905976    -2.36751253    -0.96983219       adf.R=1.350
     20      H    -1.66979673    -1.13365233     1.38758643       adf.R=1.350
     21      H    -0.31926662    -2.27068391     1.44174611       adf.R=1.350
     22      H    -0.21833741    -0.74417291     2.33032312       adf.R=1.350
     23      C     4.84308679     1.77976794     0.29098206       adf.R=1.700
     24      C     5.74026322     0.60687694     0.64731929       adf.R=1.700
     25      N     7.05688975     0.73644851     0.04959315       adf.R=1.608
     26      C     7.85769718     1.79480341     0.67380810       adf.R=1.700
     27      C     8.28587328     2.88016130    -0.29898998       adf.R=1.700
     28      C     8.97469810    -0.52663652    -0.89592732       adf.R=1.700
     29      C     7.75324850    -0.54269036     0.00294564       adf.R=1.700
     30      H     4.70978943     1.84422643    -0.79103345       adf.R=1.350
     31      H     5.26227317     2.72791000     0.63003677       adf.R=1.350
     32      H     5.27804880    -0.30697502     0.26395958       adf.R=1.350
     33      H     5.78362369     0.50322130     1.74590345       adf.R=1.350
     34      H     8.04831783    -0.87174491     1.01598995       adf.R=1.350
     35      H     7.04764928    -1.28733894    -0.37414183       adf.R=1.350
     36      H     8.70101202    -0.24016649    -1.91374102       adf.R=1.350
     37      H     9.42736125    -1.52021185    -0.92575373       adf.R=1.350
     38      H     9.73602467     0.17026972    -0.53899259       adf.R=1.350
     39      H     8.74391951     1.35460455     1.14710321       adf.R=1.350
     40      H     7.28520798     2.24815922     1.49018702       adf.R=1.350
     41      H     8.88716817     2.46432190    -1.10971339       adf.R=1.350
     42      H     8.87947455     3.64321433     0.21197776       adf.R=1.350
     43      H     7.41502655     3.36573251    -0.74514769       adf.R=1.350
 
Total System Charge             0.00000
Bonding info available!
 
 *** GOStep5 ***

 SOLVATION
-------------------------------------------

  The Delley construction of COSMO surface surface is calculated

       Division Level for Surface Triangles (NDIV)                  3
       Final Division Level for Triangles (NFDIV)                   1
       Radius of the Solvent (RSOL)                           3.17000 angstr
  Dielectric Constant (EPSL)                                  4.80000

       COSMO equation is solved iteratively-               conjugate-gradient

       Maximun of Iterations for Charges (NCIX)                  1000
       Criterion for Charge convergence (CCNV)                1.0E-08

  COSMO charges included variationally in SCF

       COSMO included at every SCF cycle

  Geometry-dependent empirical factor                         0.00000

  C-Matrix calculated in cspmtx

  In cspmtx, C-Matrix calculated using fitted potential

-------------------------------------------



 -------------------------------------------
  COSMO surface
  Area             =         1125.322
  Volume           =         2405.343
  Number of Points =         2631
 -------------------------------------------



 ======================
 RI Hartree-Fock Scheme
 ======================
  
 Fit Set Quality     : GOOD
 Integration Quality : GOOD
 Threshold Quality   : GOOD
 Response Quality    : DEFAULT
 Is Range Separated  :  F
 
 RIHartreeFock Dependency: number of modified vectors:          32
 cosmo_calcen: 0.5 (esolb+esolc) (Hartrees) =   -0.010351

 Solvation energy (screening term,uncorrected) =     -6.495537 kcal/mol

 Solvation energy (dispersion and cavitation terms) =      1.687402 kcal/mol
 Solvation Energy Contributions (Hartrees)
          esola   esolb+esolc
     0.01035130   -0.02070259
 esol last cycle   -0.01035130
  
 Hartree-Fock exchange energy:   -142.274172885081     
 cosmo_calcen: 0.5 (esolb+esolc) (Hartrees) =   -0.010351

 Solvation energy (screening term,uncorrected) =     -6.495540 kcal/mol

 Solvation energy (dispersion and cavitation terms) =      1.687402 kcal/mol
 Solvation Energy Contributions (Hartrees)
          esola   esolb+esolc
     0.01035130   -0.02070260
 esol last cycle   -0.01035130
  pauli hf:                              4.023030220672908        109.4722          2524.49         10562.46
  elstat hf:                            -4.281014889597390       -116.4923         -2686.38        -11239.80

 Energy gradients wrt nuclear displacements
 ==========================================

     Atom      Cartesian (a.u./angstrom)
                 X         Y         Z
 ----------------------------------------
     1 S    -0.000103 -0.000065 -0.000394
     2 P     0.000490  0.000111  0.000433
     3 O    -0.000463  0.000449 -0.000208
     4 O    -0.000037 -0.000476  0.000149
     5 C     0.000032  0.000043  0.000048
     6 C    -0.000008 -0.000112 -0.000013
     7 C     0.000001  0.000015 -0.000041
     8 C     0.000046  0.000029 -0.000053
     9 C    -0.000046 -0.000013  0.000030
    10 C     0.000078 -0.000019  0.000022
    11 H    -0.000005 -0.000018  0.000007
    12 H     0.000020 -0.000004 -0.000002
    13 H    -0.000015  0.000020 -0.000017
    14 H     0.000004 -0.000029  0.000000
    15 H    -0.000006 -0.000022  0.000026
    16 H    -0.000013  0.000008 -0.000006
    17 H    -0.000016 -0.000016  0.000008
    18 H     0.000032  0.000005  0.000028
    19 H     0.000012 -0.000024  0.000035
    20 H    -0.000018 -0.000000 -0.000002
    21 H     0.000007 -0.000023  0.000022
    22 H     0.000010  0.000007  0.000010
    23 C    -0.000187 -0.000012  0.000040
    24 C     0.000064  0.000069  0.000020
    25 N    -0.000064 -0.000033 -0.000030
    26 C    -0.000030 -0.000059  0.000023
    27 C    -0.000004  0.000044 -0.000039
    28 C     0.000051 -0.000023 -0.000034
    29 C     0.000050  0.000032 -0.000008
    30 H     0.000021  0.000023 -0.000004
    31 H     0.000037  0.000032  0.000014
    32 H     0.000009 -0.000004 -0.000005
    33 H    -0.000012  0.000019  0.000024
    34 H     0.000016  0.000009  0.000017
    35 H     0.000003  0.000008  0.000004
    36 H    -0.000004  0.000001 -0.000012
    37 H     0.000021 -0.000012  0.000004
    38 H     0.000005  0.000022  0.000010
    39 H     0.000026 -0.000013  0.000000
    40 H     0.000007  0.000017 -0.000021
    41 H     0.000010  0.000003 -0.000024
    42 H    -0.000001  0.000019 -0.000007
    43 H    -0.000018 -0.000005 -0.000056
 ----------------------------------------
 Mulliken charges used for AMS results%charges...

 dE(predicted):    -0.23455E-05, dE(actual):    -0.74364E-05, Trust radius:    0.200000, all in a.u.
 
----------------------------------------------------------------------
Geometry Convergence after Step   5       (Hartree/Angstrom,Angstrom)
----------------------------------------------------------------------
current energy                              -10.54752368 Hartree
energy change                      -0.00000744     0.00043000    T
constrained gradient max            0.00049091     0.00100000    T
constrained gradient rms            0.00010556     0.00066667    T
gradient max                        0.00049091
gradient rms                        0.00010556
cart. step max                      0.00632960     0.00100000    F
cart. step rms                      0.00229502     0.00066667    F
 
 
--------
Geometry
--------
Formula: C12H26NO2PS
Atoms
  Index Symbol   x (angstrom)   y (angstrom)   z (angstrom)
      1      S     3.20577018     1.65948405     1.08541776       adf.R=1.792
      2      P     2.21151022     0.60385459    -0.50045954       adf.R=1.850
      3      O     0.81831037     1.42589946    -0.77243651       adf.R=1.517
      4      O     1.46433156    -0.60325050     0.33838212       adf.R=1.517
      5      C    -0.29154735     0.94625258     0.04075366       adf.R=1.700
      6      C     0.01872822    -0.56915732     0.18496205       adf.R=1.700
      7      C    -0.28150325     1.68790107     1.36732753       adf.R=1.700
      8      C    -1.56363779     1.24761296    -0.72363088       adf.R=1.700
      9      C    -0.33256665    -1.37014367    -1.05931992       adf.R=1.700
     10      C    -0.58523230    -1.20959747     1.41730993       adf.R=1.700
     11      H    -1.17889526     1.45496801     1.94257725       adf.R=1.350
     12      H     0.58809550     1.43496299     1.97544805       adf.R=1.350
     13      H    -0.26805512     2.76120852     1.17424910       adf.R=1.350
     14      H    -1.52002335     0.86246764    -1.74132376       adf.R=1.350
     15      H    -2.42232537     0.80343249    -0.21555814       adf.R=1.350
     16      H    -1.71867248     2.32660854    -0.76772741       adf.R=1.350
     17      H    -1.41307910    -1.47111488    -1.16990331       adf.R=1.350
     18      H     0.06747269    -0.90570347    -1.96265998       adf.R=1.350
     19      H     0.09630197    -2.36883529    -0.96684039       adf.R=1.350
     20      H    -1.67411673    -1.12987669     1.38732608       adf.R=1.350
     21      H    -0.32534596    -2.26877086     1.44442172       adf.R=1.350
     22      H    -0.22330050    -0.74142649     2.33133372       adf.R=1.350
     23      C     4.84348098     1.77590792     0.29187260       adf.R=1.700
     24      C     5.74224198     0.60421223     0.64753659       adf.R=1.700
     25      N     7.05840639     0.73604481     0.04933762       adf.R=1.608
     26      C     7.85804799     1.79495637     0.67422293       adf.R=1.700
     27      C     8.28358292     2.88226314    -0.29741850       adf.R=1.700
     28      C     8.97690394    -0.52412332    -0.89808824       adf.R=1.700
     29      C     7.75601555    -0.54233784     0.00135895       adf.R=1.700
     30      H     4.70887959     1.83976201    -0.79000346       adf.R=1.350
     31      H     5.26151592     2.72470507     0.63027212       adf.R=1.350
     32      H     5.28108762    -0.31008878     0.26408121       adf.R=1.350
     33      H     5.78645606     0.50024989     1.74599850       adf.R=1.350
     34      H     8.05176232    -0.87194689     1.01396604       adf.R=1.350
     35      H     7.05098914    -1.28728985    -0.37613228       adf.R=1.350
     36      H     8.70234073    -0.23686518    -1.91540802       adf.R=1.350
     37      H     9.43047497    -1.51720301    -0.92925076       adf.R=1.350
     38      H     9.73775690     0.17311707    -0.54090649       adf.R=1.350
     39      H     8.74531730     1.35555863     1.14615798       adf.R=1.350
     40      H     7.28549049     2.24626187     1.49165695       adf.R=1.350
     41      H     8.88413926     2.46839700    -1.10965284       adf.R=1.350
     42      H     8.87700576     3.64521101     0.21384356       adf.R=1.350
     43      H     7.41150594     3.36752575    -0.74140761       adf.R=1.350
 
Total System Charge             0.00000
Bonding info available!
 
 *** GOStep6 ***

 SOLVATION
-------------------------------------------

  The Delley construction of COSMO surface surface is calculated

       Division Level for Surface Triangles (NDIV)                  3
       Final Division Level for Triangles (NFDIV)                   1
       Radius of the Solvent (RSOL)                           3.17000 angstr
  Dielectric Constant (EPSL)                                  4.80000

       COSMO equation is solved iteratively-               conjugate-gradient

       Maximun of Iterations for Charges (NCIX)                  1000
       Criterion for Charge convergence (CCNV)                1.0E-08

  COSMO charges included variationally in SCF

       COSMO included at every SCF cycle

  Geometry-dependent empirical factor                         0.00000

  C-Matrix calculated in cspmtx

  In cspmtx, C-Matrix calculated using fitted potential

-------------------------------------------



 -------------------------------------------
  COSMO surface
  Area             =         1124.501
  Volume           =         2404.911
  Number of Points =         2632
 -------------------------------------------



 ======================
 RI Hartree-Fock Scheme
 ======================
  
 Fit Set Quality     : GOOD
 Integration Quality : GOOD
 Threshold Quality   : GOOD
 Response Quality    : DEFAULT
 Is Range Separated  :  F
 
 RIHartreeFock Dependency: number of modified vectors:          32
 cosmo_calcen: 0.5 (esolb+esolc) (Hartrees) =   -0.010353

 Solvation energy (screening term,uncorrected) =     -6.496514 kcal/mol

 Solvation energy (dispersion and cavitation terms) =      1.686170 kcal/mol
 Solvation Energy Contributions (Hartrees)
          esola   esolb+esolc
     0.01035285   -0.02070571
 esol last cycle   -0.01035285
  
 Hartree-Fock exchange energy:   -142.275141954179     
 cosmo_calcen: 0.5 (esolb+esolc) (Hartrees) =   -0.010353

 Solvation energy (screening term,uncorrected) =     -6.496516 kcal/mol

 Solvation energy (dispersion and cavitation terms) =      1.686170 kcal/mol
 Solvation Energy Contributions (Hartrees)
          esola   esolb+esolc
     0.01035286   -0.02070571
 esol last cycle   -0.01035286
  pauli hf:                              4.023178867748705        109.4763          2524.58         10562.85
  elstat hf:                            -4.281556177233842       -116.5071         -2686.72        -11241.22

 Energy gradients wrt nuclear displacements
 ==========================================

     Atom      Cartesian (a.u./angstrom)
                 X         Y         Z
 ----------------------------------------
     1 S    -0.000114 -0.000030 -0.000126
     2 P     0.000267 -0.000013  0.000040
     3 O    -0.000082 -0.000032  0.000087
     4 O    -0.000031  0.000069 -0.000004
     5 C     0.000043  0.000004  0.000009
     6 C    -0.000026 -0.000001 -0.000004
     7 C    -0.000025 -0.000038 -0.000024
     8 C    -0.000034 -0.000023  0.000008
     9 C     0.000014  0.000003  0.000024
    10 C    -0.000015  0.000032  0.000015
    11 H     0.000022 -0.000000  0.000006
    12 H    -0.000014 -0.000009 -0.000016
    13 H    -0.000015 -0.000040 -0.000009
    14 H     0.000007 -0.000013  0.000044
    15 H     0.000002 -0.000002 -0.000006
    16 H     0.000008 -0.000044 -0.000000
    17 H     0.000033 -0.000009  0.000021
    18 H    -0.000009 -0.000028  0.000037
    19 H    -0.000009  0.000013  0.000022
    20 H     0.000015 -0.000011  0.000023
    21 H     0.000006  0.000034  0.000006
    22 H    -0.000002  0.000008 -0.000016
    23 C     0.000060  0.000010 -0.000035
    24 C    -0.000040 -0.000042  0.000042
    25 N    -0.000018  0.000009 -0.000069
    26 C     0.000015  0.000068  0.000020
    27 C     0.000018  0.000032 -0.000028
    28 C     0.000011  0.000023 -0.000016
    29 C     0.000016 -0.000071  0.000023
    30 H    -0.000013 -0.000015  0.000010
    31 H    -0.000043 -0.000015 -0.000000
    32 H     0.000011  0.000027  0.000007
    33 H     0.000032  0.000024 -0.000039
    34 H    -0.000016  0.000038 -0.000029
    35 H     0.000011  0.000032  0.000003
    36 H     0.000005 -0.000010  0.000026
    37 H    -0.000016  0.000028  0.000008
    38 H    -0.000022 -0.000014 -0.000011
    39 H    -0.000028  0.000013 -0.000023
    40 H     0.000021  0.000003 -0.000058
    41 H    -0.000012  0.000017  0.000006
    42 H    -0.000024 -0.000002 -0.000036
    43 H    -0.000008 -0.000025  0.000062
 ----------------------------------------
 Mulliken charges used for AMS results%charges...
 
----------------------------------------------------------------------
Geometry Convergence after Step   6       (Hartree/Angstrom,Angstrom)
----------------------------------------------------------------------
current energy                              -10.54752360 Hartree
energy change                       0.00000008     0.00043000    T
constrained gradient max            0.00026772     0.00100000    T
constrained gradient rms            0.00003882     0.00066667    T
gradient max                        0.00026772
gradient rms                        0.00003882
cart. step max                      0.00698163     0.00100000    F
cart. step rms                      0.00232563     0.00066667    F
 
 
--------
Geometry
--------
Formula: C12H26NO2PS
Atoms
  Index Symbol   x (angstrom)   y (angstrom)   z (angstrom)
      1      S     3.20625818     1.65553971     1.08692335       adf.R=1.792
      2      P     2.21058571     0.60301948    -0.50053831       adf.R=1.850
      3      O     0.81803454     1.42633635    -0.77128075       adf.R=1.517
      4      O     1.46277102    -0.60445236     0.33714412       adf.R=1.517
      5      C    -0.29197226     0.94658822     0.04171135       adf.R=1.700
      6      C     0.01718160    -0.56920973     0.18373252       adf.R=1.700
      7      C    -0.28072088     1.68670449     1.36916107       adf.R=1.700
      8      C    -1.56408159     1.25000094    -0.72184032       adf.R=1.700
      9      C    -0.33466500    -1.36811303    -1.06175820       adf.R=1.700
     10      C    -0.58712631    -1.21125534     1.41509587       adf.R=1.700
     11      H    -1.17827669     1.45418069     1.94432676       adf.R=1.350
     12      H     0.58872282     1.43207999     1.97679806       adf.R=1.350
     13      H    -0.26604322     2.76022725     1.17733786       adf.R=1.350
     14      H    -1.52115849     0.86623670    -1.74009539       adf.R=1.350
     15      H    -2.42292681     0.80578594    -0.21406562       adf.R=1.350
     16      H    -1.71830618     2.32917988    -0.76438680       adf.R=1.350
     17      H    -1.41525052    -1.46843635    -1.17229121       adf.R=1.350
     18      H     0.06536604    -0.90247262    -1.96449348       adf.R=1.350
     19      H     0.09376361    -2.36714977    -0.97092954       adf.R=1.350
     20      H    -1.67595296    -1.13072043     1.38530798       adf.R=1.350
     21      H    -0.32798713    -2.27066173     1.44046571       adf.R=1.350
     22      H    -0.22481464    -0.74485705     2.32988100       adf.R=1.350
     23      C     4.84352332     1.77319397     0.29245208       adf.R=1.700
     24      C     5.74370514     0.60295102     0.64915550       adf.R=1.700
     25      N     7.05953422     0.73550269     0.05031134       adf.R=1.608
     26      C     7.85786231     1.79704093     0.67245821       adf.R=1.700
     27      C     8.28217808     2.88207996    -0.30224237       adf.R=1.700
     28      C     8.97932878    -0.52379100    -0.89542746       adf.R=1.700
     29      C     7.75900392    -0.54196378     0.00476742       adf.R=1.700
     30      H     4.70832090     1.83566110    -0.78943736       adf.R=1.350
     31      H     5.26063193     2.72284377     0.62957736       adf.R=1.350
     32      H     5.28343391    -0.31236687     0.26706482       adf.R=1.350
     33      H     5.78846592     0.50044087     1.74773020       adf.R=1.350
     34      H     8.05579280    -0.86894941     1.01792119       adf.R=1.350
     35      H     7.05489310    -1.28879035    -0.37074227       adf.R=1.350
     36      H     8.70370416    -0.23907371    -1.91318232       adf.R=1.350
     37      H     9.43440394    -1.51624115    -0.92481327       adf.R=1.350
     38      H     9.73934788     0.17536434    -0.54019748       adf.R=1.350
     39      H     8.74567149     1.35999670     1.14554964       adf.R=1.350
     40      H     7.28473447     2.24983155     1.48869319       adf.R=1.350
     41      H     8.88321129     2.46651810    -1.11326280       adf.R=1.350
     42      H     8.87480056     3.64709834     0.20686193       adf.R=1.350
     43      H     7.40967226     3.36519587    -0.74775761       adf.R=1.350
 
Total System Charge             0.00000
Bonding info available!
 
 *** GOStep7 ***

 SOLVATION
-------------------------------------------

  The Delley construction of COSMO surface surface is calculated

       Division Level for Surface Triangles (NDIV)                  3
       Final Division Level for Triangles (NFDIV)                   1
       Radius of the Solvent (RSOL)                           3.17000 angstr
  Dielectric Constant (EPSL)                                  4.80000

       COSMO equation is solved iteratively-               conjugate-gradient

       Maximun of Iterations for Charges (NCIX)                  1000
       Criterion for Charge convergence (CCNV)                1.0E-08

  COSMO charges included variationally in SCF

       COSMO included at every SCF cycle

  Geometry-dependent empirical factor                         0.00000

  C-Matrix calculated in cspmtx

  In cspmtx, C-Matrix calculated using fitted potential

-------------------------------------------



 -------------------------------------------
  COSMO surface
  Area             =         1125.494
  Volume           =         2404.953
  Number of Points =         2634
 -------------------------------------------



 ======================
 RI Hartree-Fock Scheme
 ======================
  
 Fit Set Quality     : GOOD
 Integration Quality : GOOD
 Threshold Quality   : GOOD
 Response Quality    : DEFAULT
 Is Range Separated  :  F
 
 RIHartreeFock Dependency: number of modified vectors:          32
 cosmo_calcen: 0.5 (esolb+esolc) (Hartrees) =   -0.010357

 Solvation energy (screening term,uncorrected) =     -6.498953 kcal/mol

 Solvation energy (dispersion and cavitation terms) =      1.687660 kcal/mol
 Solvation Energy Contributions (Hartrees)
          esola   esolb+esolc
     0.01035674   -0.02071348
 esol last cycle   -0.01035674
  
 Hartree-Fock exchange energy:   -142.275011340641     
 cosmo_calcen: 0.5 (esolb+esolc) (Hartrees) =   -0.010357

 Solvation energy (screening term,uncorrected) =     -6.498954 kcal/mol

 Solvation energy (dispersion and cavitation terms) =      1.687660 kcal/mol
 Solvation Energy Contributions (Hartrees)
          esola   esolb+esolc
     0.01035674   -0.02071348
 esol last cycle   -0.01035674
  pauli hf:                              4.023496306692486        109.4849          2524.78         10563.69
  elstat hf:                            -4.281463742414108       -116.5046         -2686.66        -11240.98

 Energy gradients wrt nuclear displacements
 ==========================================

     Atom      Cartesian (a.u./angstrom)
                 X         Y         Z
 ----------------------------------------
     1 S    -0.000107 -0.000003  0.000020
     2 P     0.000098 -0.000034 -0.000053
     3 O    -0.000023 -0.000076  0.000088
     4 O    -0.000004  0.000106  0.000021
     5 C     0.000053 -0.000063  0.000025
     6 C    -0.000047  0.000063 -0.000034
     7 C     0.000004  0.000002 -0.000030
     8 C    -0.000031 -0.000023  0.000009
     9 C     0.000027  0.000001  0.000034
    10 C    -0.000004 -0.000010  0.000015
    11 H     0.000018  0.000009 -0.000002
    12 H    -0.000007  0.000002 -0.000014
    13 H    -0.000008 -0.000026  0.000001
    14 H     0.000001 -0.000013  0.000029
    15 H     0.000005 -0.000002 -0.000005
    16 H     0.000006 -0.000037 -0.000001
    17 H     0.000026 -0.000011  0.000019
    18 H    -0.000012 -0.000027  0.000022
    19 H    -0.000008  0.000005  0.000014
    20 H     0.000020 -0.000010  0.000020
    21 H     0.000004  0.000022  0.000013
    22 H    -0.000003 -0.000007 -0.000012
    23 C     0.000120 -0.000015 -0.000082
    24 C    -0.000097 -0.000045  0.000025
    25 N     0.000026  0.000032 -0.000009
    26 C     0.000051  0.000116  0.000044
    27 C    -0.000012 -0.000009 -0.000020
    28 C    -0.000017  0.000040 -0.000004
    29 C     0.000027 -0.000115  0.000034
    30 H    -0.000003 -0.000004  0.000014
    31 H    -0.000043 -0.000016  0.000010
    32 H     0.000001  0.000019  0.000010
    33 H     0.000031  0.000026 -0.000054
    34 H    -0.000015  0.000030 -0.000028
    35 H     0.000009  0.000023 -0.000001
    36 H     0.000003 -0.000006  0.000014
    37 H    -0.000014  0.000025  0.000009
    38 H    -0.000014 -0.000004 -0.000017
    39 H    -0.000036  0.000028 -0.000038
    40 H    -0.000003  0.000009 -0.000024
    41 H    -0.000012  0.000010 -0.000001
    42 H    -0.000019 -0.000005 -0.000029
    43 H     0.000012 -0.000011 -0.000033
 ----------------------------------------
 Mulliken charges used for AMS results%charges...
 
----------------------------------------------------------------------
Geometry Convergence after Step   7       (Hartree/Angstrom,Angstrom)
----------------------------------------------------------------------
current energy                              -10.54752283 Hartree
energy change                       0.00000078     0.00043000    T
constrained gradient max            0.00012244     0.00100000    T
constrained gradient rms            0.00003518     0.00066667    T
gradient max                        0.00012244
gradient rms                        0.00003518
cart. step max                      0.00205515     0.00100000    F
cart. step rms                      0.00061831     0.00066667    T
 
 
--------
Geometry
--------
Formula: C12H26NO2PS
Atoms
  Index Symbol   x (angstrom)   y (angstrom)   z (angstrom)
      1      S     3.20636414     1.65525997     1.08676928       adf.R=1.792
      2      P     2.21034788     0.60258942    -0.50040683       adf.R=1.850
      3      O     0.81793151     1.42598402    -0.77163448       adf.R=1.517
      4      O     1.46246874    -0.60483236     0.33733287       adf.R=1.517
      5      C    -0.29217398     0.94650116     0.04140697       adf.R=1.700
      6      C     0.01686248    -0.56935051     0.18410184       adf.R=1.700
      7      C    -0.28104270     1.68722437     1.36854836       adf.R=1.700
      8      C    -1.56414610     1.24970873    -0.72246704       adf.R=1.700
      9      C    -0.33528736    -1.36879759    -1.06098579       adf.R=1.700
     10      C    -0.58733931    -1.21078744     1.41584985       adf.R=1.700
     11      H    -1.17871457     1.45500192     1.94367173       adf.R=1.350
     12      H     0.58830268     1.43284258     1.97644617       adf.R=1.350
     13      H    -0.26626856     2.76067447     1.17623658       adf.R=1.350
     14      H    -1.52110636     0.86559161    -1.74060049       adf.R=1.350
     15      H    -2.42307009     0.80567632    -0.21464800       adf.R=1.350
     16      H    -1.71835661     2.32888885    -0.76540194       adf.R=1.350
     17      H    -1.41591315    -1.46903806    -1.17133776       adf.R=1.350
     18      H     0.06471349    -0.90362213    -1.96398824       adf.R=1.350
     19      H     0.09303899    -2.36785470    -0.96974277       adf.R=1.350
     20      H    -1.67616362    -1.13006109     1.38618478       adf.R=1.350
     21      H    -0.32838980    -2.27024542     1.44164413       adf.R=1.350
     22      H    -0.22480415    -0.74406382     2.33039752       adf.R=1.350
     23      C     4.84353253     1.77313186     0.29217948       adf.R=1.700
     24      C     5.74388590     0.60291831     0.64868127       adf.R=1.700
     25      N     7.05977023     0.73563770     0.04999968       adf.R=1.608
     26      C     7.85824930     1.79655456     0.67294016       adf.R=1.700
     27      C     8.28267301     2.88241477    -0.30082847       adf.R=1.700
     28      C     8.97970304    -0.52334189    -0.89616386       adf.R=1.700
     29      C     7.75919670    -0.54181214     0.00381646       adf.R=1.700
     30      H     4.70825952     1.83570380    -0.78970702       adf.R=1.350
     31      H     5.26066825     2.72278914     0.62930745       adf.R=1.350
     32      H     5.28372995    -0.31234602     0.26629369       adf.R=1.350
     33      H     5.78845304     0.50008064     1.74726166       adf.R=1.350
     34      H     8.05586541    -0.86936578     1.01684633       adf.R=1.350
     35      H     7.05509588    -1.28844071    -0.37213364       adf.R=1.350
     36      H     8.70429804    -0.23807013    -1.91383525       adf.R=1.350
     37      H     9.43469946    -1.51583087    -0.92597600       adf.R=1.350
     38      H     9.73973807     0.17556229    -0.54043226       adf.R=1.350
     39      H     8.74604446     1.35901093     1.14565326       adf.R=1.350
     40      H     7.28523847     2.24874231     1.48960530       adf.R=1.350
     41      H     8.88353922     2.46747573    -1.11230581       adf.R=1.350
     42      H     8.87551341     3.64685552     0.20891708       adf.R=1.350
     43      H     7.41021376     3.36613383    -0.74581028       adf.R=1.350
 
Total System Charge             0.00000
Bonding info available!
 
 *** GOStep8 ***

 SOLVATION
-------------------------------------------

  The Delley construction of COSMO surface surface is calculated

       Division Level for Surface Triangles (NDIV)                  3
       Final Division Level for Triangles (NFDIV)                   1
       Radius of the Solvent (RSOL)                           3.17000 angstr
  Dielectric Constant (EPSL)                                  4.80000

       COSMO equation is solved iteratively-               conjugate-gradient

       Maximun of Iterations for Charges (NCIX)                  1000
       Criterion for Charge convergence (CCNV)                1.0E-08

  COSMO charges included variationally in SCF

       COSMO included at every SCF cycle

  Geometry-dependent empirical factor                         0.00000

  C-Matrix calculated in cspmtx

  In cspmtx, C-Matrix calculated using fitted potential

-------------------------------------------



 -------------------------------------------
  COSMO surface
  Area             =         1125.756
  Volume           =         2405.424
  Number of Points =         2635
 -------------------------------------------



 ======================
 RI Hartree-Fock Scheme
 ======================
  
 Fit Set Quality     : GOOD
 Integration Quality : GOOD
 Threshold Quality   : GOOD
 Response Quality    : DEFAULT
 Is Range Separated  :  F
 
 RIHartreeFock Dependency: number of modified vectors:          32
 cosmo_calcen: 0.5 (esolb+esolc) (Hartrees) =   -0.010357

 Solvation energy (screening term,uncorrected) =     -6.499253 kcal/mol

 Solvation energy (dispersion and cavitation terms) =      1.688053 kcal/mol
 Solvation Energy Contributions (Hartrees)
          esola   esolb+esolc
     0.01035722   -0.02071444
 esol last cycle   -0.01035722
  
 Hartree-Fock exchange energy:   -142.274732203928     
 cosmo_calcen: 0.5 (esolb+esolc) (Hartrees) =   -0.010357

 Solvation energy (screening term,uncorrected) =     -6.499250 kcal/mol

 Solvation energy (dispersion and cavitation terms) =      1.688053 kcal/mol
 Solvation Energy Contributions (Hartrees)
          esola   esolb+esolc
     0.01035721   -0.02071442
 esol last cycle   -0.01035721
  pauli hf:                              4.024017966731385        109.4991          2525.11         10565.06
  elstat hf:                            -4.281297446778527       -116.5000         -2686.55        -11240.54

 Energy gradients wrt nuclear displacements
 ==========================================

     Atom      Cartesian (a.u./angstrom)
                 X         Y         Z
 ----------------------------------------
     1 S    -0.000060 -0.000017 -0.000033
     2 P    -0.000002  0.000008  0.000057
     3 O    -0.000049  0.000016  0.000009
     4 O     0.000007 -0.000019  0.000036
     5 C     0.000046 -0.000076  0.000006
     6 C    -0.000027  0.000051 -0.000019
     7 C     0.000017  0.000017 -0.000024
     8 C    -0.000008 -0.000010 -0.000002
     9 C     0.000013 -0.000010  0.000031
    10 C     0.000017 -0.000024  0.000011
    11 H     0.000006  0.000005 -0.000004
    12 H     0.000001  0.000004 -0.000004
    13 H    -0.000006 -0.000004  0.000000
    14 H    -0.000003 -0.000017  0.000008
    15 H     0.000005 -0.000009  0.000004
    16 H    -0.000003 -0.000019 -0.000004
    17 H     0.000007 -0.000016  0.000015
    18 H    -0.000005 -0.000020  0.000012
    19 H    -0.000000 -0.000009  0.000015
    20 H     0.000012 -0.000005  0.000013
    21 H     0.000005  0.000002  0.000021
    22 H     0.000002 -0.000004  0.000005
    23 C     0.000066 -0.000008 -0.000034
    24 C    -0.000047  0.000023  0.000017
    25 N    -0.000012  0.000007 -0.000016
    26 C     0.000031  0.000038  0.000007
    27 C    -0.000011 -0.000001 -0.000016
    28 C    -0.000003  0.000009  0.000005
    29 C     0.000038 -0.000016  0.000014
    30 H    -0.000001  0.000001  0.000002
    31 H    -0.000019 -0.000005 -0.000001
    32 H     0.000003  0.000011  0.000003
    33 H     0.000011  0.000015 -0.000018
    34 H    -0.000003  0.000020 -0.000011
    35 H     0.000001  0.000015  0.000004
    36 H    -0.000002 -0.000002  0.000007
    37 H     0.000003  0.000010 -0.000000
    38 H    -0.000004  0.000006 -0.000008
    39 H    -0.000011  0.000013 -0.000019
    40 H     0.000002  0.000007 -0.000017
    41 H    -0.000007  0.000006 -0.000010
    42 H    -0.000011  0.000008 -0.000024
    43 H     0.000002 -0.000001 -0.000037
 ----------------------------------------
 Mulliken charges used for AMS results%charges...
 
---------------------------------------------------------
Geometry Convergence after Step   8       ** CONVERGED **
---------------------------------------------------------
current energy                              -10.54752328 Hartree
energy change                      -0.00000046     0.00043000    T
constrained gradient max            0.00006830     0.00100000    T
constrained gradient rms            0.00001802     0.00066667    T
gradient max                        0.00006830
gradient rms                        0.00001802
cart. step max                      0.00253259     0.00100000    F
cart. step rms                      0.00075564     0.00066667    F
 
Geometry optimization converged

Optimized geometry:
 
--------
Geometry
--------
Formula: C12H26NO2PS
Atoms
  Index Symbol   x (angstrom)   y (angstrom)   z (angstrom)
      1      S     3.20636414     1.65525997     1.08676928       adf.R=1.792
      2      P     2.21034788     0.60258942    -0.50040683       adf.R=1.850
      3      O     0.81793151     1.42598402    -0.77163448       adf.R=1.517
      4      O     1.46246874    -0.60483236     0.33733287       adf.R=1.517
      5      C    -0.29217398     0.94650116     0.04140697       adf.R=1.700
      6      C     0.01686248    -0.56935051     0.18410184       adf.R=1.700
      7      C    -0.28104270     1.68722437     1.36854836       adf.R=1.700
      8      C    -1.56414610     1.24970873    -0.72246704       adf.R=1.700
      9      C    -0.33528736    -1.36879759    -1.06098579       adf.R=1.700
     10      C    -0.58733931    -1.21078744     1.41584985       adf.R=1.700
     11      H    -1.17871457     1.45500192     1.94367173       adf.R=1.350
     12      H     0.58830268     1.43284258     1.97644617       adf.R=1.350
     13      H    -0.26626856     2.76067447     1.17623658       adf.R=1.350
     14      H    -1.52110636     0.86559161    -1.74060049       adf.R=1.350
     15      H    -2.42307009     0.80567632    -0.21464800       adf.R=1.350
     16      H    -1.71835661     2.32888885    -0.76540194       adf.R=1.350
     17      H    -1.41591315    -1.46903806    -1.17133776       adf.R=1.350
     18      H     0.06471349    -0.90362213    -1.96398824       adf.R=1.350
     19      H     0.09303899    -2.36785470    -0.96974277       adf.R=1.350
     20      H    -1.67616362    -1.13006109     1.38618478       adf.R=1.350
     21      H    -0.32838980    -2.27024542     1.44164413       adf.R=1.350
     22      H    -0.22480415    -0.74406382     2.33039752       adf.R=1.350
     23      C     4.84353253     1.77313186     0.29217948       adf.R=1.700
     24      C     5.74388590     0.60291831     0.64868127       adf.R=1.700
     25      N     7.05977023     0.73563770     0.04999968       adf.R=1.608
     26      C     7.85824930     1.79655456     0.67294016       adf.R=1.700
     27      C     8.28267301     2.88241477    -0.30082847       adf.R=1.700
     28      C     8.97970304    -0.52334189    -0.89616386       adf.R=1.700
     29      C     7.75919670    -0.54181214     0.00381646       adf.R=1.700
     30      H     4.70825952     1.83570380    -0.78970702       adf.R=1.350
     31      H     5.26066825     2.72278914     0.62930745       adf.R=1.350
     32      H     5.28372995    -0.31234602     0.26629369       adf.R=1.350
     33      H     5.78845304     0.50008064     1.74726166       adf.R=1.350
     34      H     8.05586541    -0.86936578     1.01684633       adf.R=1.350
     35      H     7.05509588    -1.28844071    -0.37213364       adf.R=1.350
     36      H     8.70429804    -0.23807013    -1.91383525       adf.R=1.350
     37      H     9.43469946    -1.51583087    -0.92597600       adf.R=1.350
     38      H     9.73973807     0.17556229    -0.54043226       adf.R=1.350
     39      H     8.74604446     1.35901093     1.14565326       adf.R=1.350
     40      H     7.28523847     2.24874231     1.48960530       adf.R=1.350
     41      H     8.88353922     2.46747573    -1.11230581       adf.R=1.350
     42      H     8.87551341     3.64685552     0.20891708       adf.R=1.350
     43      H     7.41021376     3.36613383    -0.74581028       adf.R=1.350
 
Total System Charge             0.00000
Bonding info available!
 
Performing a single point calculation on the final geometry ...

[...]
       0.000       0.003       0.000              0.000       0.033       0.000
       0.000       0.000       0.003              0.000       0.000       0.033

 total calculated spin-spin coupling:    
  isotropic    k=       0.003                              j=       0.033
       0.003       0.000       0.000              0.033       0.000       0.000
       0.000       0.003       0.000              0.000       0.033       0.000
       0.000       0.000       0.003              0.000       0.000       0.033
 
 ---------------------------------
   Principal Axis Representation  
 ---------------------------------

 ----- k (10^19 kg m-2 s-2 A-2) ----         ------------- j (hz) -------------

 fermi-contact contribution:             
  isotropic    k=       0.003                              j=       0.033
       0.003       0.000       0.000              0.033       0.000       0.000
       0.000       0.003       0.000              0.000       0.033       0.000
       0.000       0.000       0.003              0.000       0.000       0.033

 total calculated spin-spin coupling:    
  isotropic    k=       0.003                              j=       0.033
       0.003       0.000       0.000              0.033       0.000       0.000
       0.000       0.003       0.000              0.000       0.033       0.000
       0.000       0.000       0.003              0.000       0.000       0.033
 
 Principal Axis System (u,v,w) expressed in Cartesians:
 (taken as eigenvectors of the symmetric part of the coupling tensor,
  sorted in ascending order of eigenvalues = principal values)
        u         v         w
        1.000     0.000     0.000
        0.000     1.000     0.000
        0.000     0.000     1.000



 =========================================
  Nucleus 42 (H) perturbing nucleus 35 (H)
 =========================================
  
 Internal CPL numbering of atoms:  H(42) perturbing  H(35)
 ADF-GUI atoms:  H(43) perturbing  H(36)
  
 ---------------------------------
   Cartesian Axis Representation  
 ---------------------------------

 ----- k (10^19 kg m-2 s-2 A-2) ----         ------------- j (hz) -------------

 fermi-contact contribution:             
  isotropic    k=      -0.001                              j=      -0.013
      -0.001       0.000       0.000             -0.013       0.000       0.000
       0.000      -0.001       0.000              0.000      -0.013       0.000
       0.000       0.000      -0.001              0.000       0.000      -0.013

 total calculated spin-spin coupling:    
  isotropic    k=      -0.001                              j=      -0.013
      -0.001       0.000       0.000             -0.013       0.000       0.000
       0.000      -0.001       0.000              0.000      -0.013       0.000
       0.000       0.000      -0.001              0.000       0.000      -0.013
 
 ---------------------------------
   Principal Axis Representation  
 ---------------------------------

 ----- k (10^19 kg m-2 s-2 A-2) ----         ------------- j (hz) -------------

 fermi-contact contribution:             
  isotropic    k=      -0.001                              j=      -0.013
      -0.001       0.000       0.000             -0.013       0.000       0.000
       0.000      -0.001       0.000              0.000      -0.013       0.000
       0.000       0.000      -0.001              0.000       0.000      -0.013

 total calculated spin-spin coupling:    
  isotropic    k=      -0.001                              j=      -0.013
      -0.001       0.000       0.000             -0.013       0.000       0.000
       0.000      -0.001       0.000              0.000      -0.013       0.000
       0.000       0.000      -0.001              0.000       0.000      -0.013
 
 Principal Axis System (u,v,w) expressed in Cartesians:
 (taken as eigenvectors of the symmetric part of the coupling tensor,
  sorted in ascending order of eigenvalues = principal values)
        u         v         w
        1.000     0.000     0.000
        0.000     1.000     0.000
        0.000     0.000     1.000



 =========================================
  Nucleus 42 (H) perturbing nucleus 36 (H)
 =========================================
  
 Internal CPL numbering of atoms:  H(42) perturbing  H(36)
 ADF-GUI atoms:  H(43) perturbing  H(37)
  
 ---------------------------------
   Cartesian Axis Representation  
 ---------------------------------

 ----- k (10^19 kg m-2 s-2 A-2) ----         ------------- j (hz) -------------

 fermi-contact contribution:             
  isotropic    k=      -0.002                              j=      -0.029
      -0.002       0.000       0.000             -0.029       0.000       0.000
       0.000      -0.002       0.000              0.000      -0.029       0.000
       0.000       0.000      -0.002              0.000       0.000      -0.029

 total calculated spin-spin coupling:    
  isotropic    k=      -0.002                              j=      -0.029
      -0.002       0.000       0.000             -0.029       0.000       0.000
       0.000      -0.002       0.000              0.000      -0.029       0.000
       0.000       0.000      -0.002              0.000       0.000      -0.029
 
 ---------------------------------
   Principal Axis Representation  
 ---------------------------------

 ----- k (10^19 kg m-2 s-2 A-2) ----         ------------- j (hz) -------------

 fermi-contact contribution:             
  isotropic    k=      -0.002                              j=      -0.029
      -0.002       0.000       0.000             -0.029       0.000       0.000
       0.000      -0.002       0.000              0.000      -0.029       0.000
       0.000       0.000      -0.002              0.000       0.000      -0.029

 total calculated spin-spin coupling:    
  isotropic    k=      -0.002                              j=      -0.029
      -0.002       0.000       0.000             -0.029       0.000       0.000
       0.000      -0.002       0.000              0.000      -0.029       0.000
       0.000       0.000      -0.002              0.000       0.000      -0.029
 
 Principal Axis System (u,v,w) expressed in Cartesians:
 (taken as eigenvectors of the symmetric part of the coupling tensor,
  sorted in ascending order of eigenvalues = principal values)
        u         v         w
        1.000     0.000     0.000
        0.000     1.000     0.000
        0.000     0.000     1.000



 =========================================
  Nucleus 42 (H) perturbing nucleus 37 (H)
 =========================================
  
 Internal CPL numbering of atoms:  H(42) perturbing  H(37)
 ADF-GUI atoms:  H(43) perturbing  H(38)
  
 ---------------------------------
   Cartesian Axis Representation  
 ---------------------------------

 ----- k (10^19 kg m-2 s-2 A-2) ----         ------------- j (hz) -------------

 fermi-contact contribution:             
  isotropic    k=      -0.004                              j=      -0.044
      -0.004       0.000       0.000             -0.044       0.000       0.000
       0.000      -0.004       0.000              0.000      -0.044       0.000
       0.000       0.000      -0.004              0.000       0.000      -0.044

 total calculated spin-spin coupling:    
  isotropic    k=      -0.004                              j=      -0.044
      -0.004       0.000       0.000             -0.044       0.000       0.000
       0.000      -0.004       0.000              0.000      -0.044       0.000
       0.000       0.000      -0.004              0.000       0.000      -0.044
 
 ---------------------------------
   Principal Axis Representation  
 ---------------------------------

 ----- k (10^19 kg m-2 s-2 A-2) ----         ------------- j (hz) -------------

 fermi-contact contribution:             
  isotropic    k=      -0.004                              j=      -0.044
      -0.004       0.000       0.000             -0.044       0.000       0.000
       0.000      -0.004       0.000              0.000      -0.044       0.000
       0.000       0.000      -0.004              0.000       0.000      -0.044

 total calculated spin-spin coupling:    
  isotropic    k=      -0.004                              j=      -0.044
      -0.004       0.000       0.000             -0.044       0.000       0.000
       0.000      -0.004       0.000              0.000      -0.044       0.000
       0.000       0.000      -0.004              0.000       0.000      -0.044
 
 Principal Axis System (u,v,w) expressed in Cartesians:
 (taken as eigenvectors of the symmetric part of the coupling tensor,
  sorted in ascending order of eigenvalues = principal values)
        u         v         w
        1.000     0.000     0.000
        0.000     1.000     0.000
        0.000     0.000     1.000



 =========================================
  Nucleus 42 (H) perturbing nucleus 38 (H)
 =========================================
  
 Internal CPL numbering of atoms:  H(42) perturbing  H(38)
 ADF-GUI atoms:  H(43) perturbing  H(39)
  
 ---------------------------------
   Cartesian Axis Representation  
 ---------------------------------

 ----- k (10^19 kg m-2 s-2 A-2) ----         ------------- j (hz) -------------

 fermi-contact contribution:             
  isotropic    k=       1.386                              j=      16.648
       1.386       0.000       0.000             16.648       0.000       0.000
       0.000       1.386       0.000              0.000      16.648       0.000
       0.000       0.000       1.386              0.000       0.000      16.648

 total calculated spin-spin coupling:    
  isotropic    k=       1.386                              j=      16.648
       1.386       0.000       0.000             16.648       0.000       0.000
       0.000       1.386       0.000              0.000      16.648       0.000
       0.000       0.000       1.386              0.000       0.000      16.648
 
 ---------------------------------
   Principal Axis Representation  
 ---------------------------------

 ----- k (10^19 kg m-2 s-2 A-2) ----         ------------- j (hz) -------------

 fermi-contact contribution:             
  isotropic    k=       1.386                              j=      16.648
       1.386       0.000       0.000             16.648       0.000       0.000
       0.000       1.386       0.000              0.000      16.648       0.000
       0.000       0.000       1.386              0.000       0.000      16.648

 total calculated spin-spin coupling:    
  isotropic    k=       1.386                              j=      16.648
       1.386       0.000       0.000             16.648       0.000       0.000
       0.000       1.386       0.000              0.000      16.648       0.000
       0.000       0.000       1.386              0.000       0.000      16.648
 
 Principal Axis System (u,v,w) expressed in Cartesians:
 (taken as eigenvectors of the symmetric part of the coupling tensor,
  sorted in ascending order of eigenvalues = principal values)
        u         v         w
        1.000     0.000     0.000
        0.000     1.000     0.000
        0.000     0.000     1.000



 =========================================
  Nucleus 42 (H) perturbing nucleus 39 (H)
 =========================================
  
 Internal CPL numbering of atoms:  H(42) perturbing  H(39)
 ADF-GUI atoms:  H(43) perturbing  H(40)
  
 ---------------------------------
   Cartesian Axis Representation  
 ---------------------------------

 ----- k (10^19 kg m-2 s-2 A-2) ----         ------------- j (hz) -------------

 fermi-contact contribution:             
  isotropic    k=       0.479                              j=       5.751
       0.479       0.000       0.000              5.751       0.000       0.000
       0.000       0.479       0.000              0.000       5.751       0.000
       0.000       0.000       0.479              0.000       0.000       5.751

 total calculated spin-spin coupling:    
  isotropic    k=       0.479                              j=       5.751
       0.479       0.000       0.000              5.751       0.000       0.000
       0.000       0.479       0.000              0.000       5.751       0.000
       0.000       0.000       0.479              0.000       0.000       5.751
 
 ---------------------------------
   Principal Axis Representation  
 ---------------------------------

 ----- k (10^19 kg m-2 s-2 A-2) ----         ------------- j (hz) -------------

 fermi-contact contribution:             
  isotropic    k=       0.479                              j=       5.751
       0.479       0.000       0.000              5.751       0.000       0.000
       0.000       0.479       0.000              0.000       5.751       0.000
       0.000       0.000       0.479              0.000       0.000       5.751

 total calculated spin-spin coupling:    
  isotropic    k=       0.479                              j=       5.751
       0.479       0.000       0.000              5.751       0.000       0.000
       0.000       0.479       0.000              0.000       5.751       0.000
       0.000       0.000       0.479              0.000       0.000       5.751
 
 Principal Axis System (u,v,w) expressed in Cartesians:
 (taken as eigenvectors of the symmetric part of the coupling tensor,
  sorted in ascending order of eigenvalues = principal values)
        u         v         w
        1.000     0.000     0.000
        0.000     1.000     0.000
        0.000     0.000     1.000



 =========================================
  Nucleus 42 (H) perturbing nucleus 40 (H)
 =========================================
  
 Internal CPL numbering of atoms:  H(42) perturbing  H(40)
 ADF-GUI atoms:  H(43) perturbing  H(41)
  
 ---------------------------------
   Cartesian Axis Representation  
 ---------------------------------

 ----- k (10^19 kg m-2 s-2 A-2) ----         ------------- j (hz) -------------

 fermi-contact contribution:             
  isotropic    k=      -1.235                              j=     -14.838
      -1.235       0.000       0.000            -14.838       0.000       0.000
       0.000      -1.235       0.000              0.000     -14.838       0.000
       0.000       0.000      -1.235              0.000       0.000     -14.838

 total calculated spin-spin coupling:    
  isotropic    k=      -1.235                              j=     -14.838
      -1.235       0.000       0.000            -14.838       0.000       0.000
       0.000      -1.235       0.000              0.000     -14.838       0.000
       0.000       0.000      -1.235              0.000       0.000     -14.838
 
 ---------------------------------
   Principal Axis Representation  
 ---------------------------------

 ----- k (10^19 kg m-2 s-2 A-2) ----         ------------- j (hz) -------------

 fermi-contact contribution:             
  isotropic    k=      -1.235                              j=     -14.838
      -1.235       0.000       0.000            -14.838       0.000       0.000
       0.000      -1.235       0.000              0.000     -14.838       0.000
       0.000       0.000      -1.235              0.000       0.000     -14.838

 total calculated spin-spin coupling:    
  isotropic    k=      -1.235                              j=     -14.838
      -1.235       0.000       0.000            -14.838       0.000       0.000
       0.000      -1.235       0.000              0.000     -14.838       0.000
       0.000       0.000      -1.235              0.000       0.000     -14.838
 
 Principal Axis System (u,v,w) expressed in Cartesians:
 (taken as eigenvectors of the symmetric part of the coupling tensor,
  sorted in ascending order of eigenvalues = principal values)
        u         v         w
        1.000     0.000     0.000
        0.000     1.000     0.000
        0.000     0.000     1.000



 =========================================
  Nucleus 42 (H) perturbing nucleus 41 (H)
 =========================================
  
 Internal CPL numbering of atoms:  H(42) perturbing  H(41)
 ADF-GUI atoms:  H(43) perturbing  H(42)
  
 ---------------------------------
   Cartesian Axis Representation  
 ---------------------------------

 ----- k (10^19 kg m-2 s-2 A-2) ----         ------------- j (hz) -------------

 fermi-contact contribution:             
  isotropic    k=      -1.242                              j=     -14.919
      -1.242       0.000       0.000            -14.919       0.000       0.000
       0.000      -1.242       0.000              0.000     -14.919       0.000
       0.000       0.000      -1.242              0.000       0.000     -14.919

 total calculated spin-spin coupling:    
  isotropic    k=      -1.242                              j=     -14.919
      -1.242       0.000       0.000            -14.919       0.000       0.000
       0.000      -1.242       0.000              0.000     -14.919       0.000
       0.000       0.000      -1.242              0.000       0.000     -14.919
 
 ---------------------------------
   Principal Axis Representation  
 ---------------------------------

 ----- k (10^19 kg m-2 s-2 A-2) ----         ------------- j (hz) -------------

 fermi-contact contribution:             
  isotropic    k=      -1.242                              j=     -14.919
      -1.242       0.000       0.000            -14.919       0.000       0.000
       0.000      -1.242       0.000              0.000     -14.919       0.000
       0.000       0.000      -1.242              0.000       0.000     -14.919

 total calculated spin-spin coupling:    
  isotropic    k=      -1.242                              j=     -14.919
      -1.242       0.000       0.000            -14.919       0.000       0.000
       0.000      -1.242       0.000              0.000     -14.919       0.000
       0.000       0.000      -1.242              0.000       0.000     -14.919
 
 Principal Axis System (u,v,w) expressed in Cartesians:
 (taken as eigenvectors of the symmetric part of the coupling tensor,
  sorted in ascending order of eigenvalues = principal values)
        u         v         w
        1.000     0.000     0.000
        0.000     1.000     0.000
        0.000     0.000     1.000
 *******************************************************************************

                             N M R   E X I T
 NORMAL TERMINATION



 =================
 Timing Statistics
 =================
  
 Total Used :                     CPU=    29314.07      System=      251.87     Elapsed=    31584.03

 Calls  Section                     ( Mean, Percentage )
 ---------------------------------------------------------------------------------------------------
     3  ><      ................      0.00    0.00             0.00    0.00             0.00    0.00
     1  GENPT   ................      1.09    0.00             0.08    0.03             1.17    0.00
  1521  CALFC   ................      7.88   40.87             0.07   42.87             8.52   41.01
    39  FCPT1   ................    444.42   59.13             3.69   57.08           477.69   58.99
    39  FCCPL   ................      0.00    0.00             0.00    0.00             0.00    0.00
     1  JCOUPL  ................      0.00    0.00             0.01    0.00             0.04    0.00
     1  EXIT PROCEDURE .........      0.00    0.00             0.03    0.01             0.03    0.00


 Currently Open Files (EXIT00)
 ====================

 Unit    Access Format  Status   Type       Ident (file)
 -------------------------------------------------------
   3      SEQ    FORM   TRANSP  NORMAL      LOGFILE
                                          ( /home/milias/work/projects/open-collection/theoretical_chemistry/projects/nmr_diplomovky/derivaty_markerov/derivative_1_Martin/ams/nonrel/geometry_optimization/geopt_pbe0_tzp_good_cosmo-chcl3/der1.geopt_pbe0_tzp_good_cosmo-chcl3.logfile )
