

 Parallel Execution: Process Information
 ==============================================================================
 Rank   Node Name                              NodeID   MyNodeRank  NodeMaster
    0   ubuntu-kch                                0          0          0
    1   ubuntu-kch                                0          1         -1
    2   ubuntu-kch                                0          2         -1
    3   ubuntu-kch                                0          3         -1
 ==============================================================================


May use up to 7570MB of RAM as shared memory on node 0

 *******************************************************************************
 *                                                                             *
 *  --------------------------------                                           *
 *   Amsterdam Modeling Suite (AMS)              2021.102                      *
 *  --------------------------------                                           *
 *                                               r95042 2021-06-07             *
 *                                                                             *
 *                                                                             *
 *                              =================                              *
 *                              |               |                              *
 *                              |     A M S     |                              *
 *                              |               |                              *
 *                              =================                              *
 *                                                                             *
 *                                                                             *
 *   Online information and documentation:  https://www.scm.com/support/       *
 *   E-mail:  support@scm.com   info@scm.com                                   *
 *                                                                             *
 *   Scientific publications using AMS results must be properly referenced     *
 *   See the User Manuals (or the web site) for recommended citations          *
 *   The terms and conditions of the End User License Agreement apply to       *
 *   the use of AMS, https://www.scm.com/license-terms/                        *
 *                                                                             *
 **********************  x86_64_linux_intel / intelmpi  ************************
 
 Licensed to: Dr. Miroslav Ilias / Matej Bel University, Department Chemistry, Fac. Natural Sciences / Banska Bystrica / SLOVAKIA
 SCM User ID: u17848
  
 AMS 2021.102  RunTime: Jul10-2021 20:18:06  ShM Nodes: 1  Procs: 4

 AMS jobname: ams
 AMS jobid  : 672283755

 Start   directory: /home/milias/work/projects/open-collection/theoretical_chemistry/projects/nmr_diplomovky/vanovci/derivative_1/ams/tmp.milias.864322.0.noindex/
 Results directory: /home/milias/work/projects/open-collection/theoretical_chemistry/projects/nmr_diplomovky/vanovci/derivative_1/ams/der1_geomopt_freq_uff.results/
 Scratch directory: /tmp/amstmp_ams_kid0.672283755/


 Communication costs MPI_COMM_WORLD:      0.254 usec per message,   0.0034 usec per 8-byte item
 Communication costs for intra-node:      0.245 usec per message,   0.0034 usec per 8-byte item

 RNG seed: -1109175842 -2065251805 1356354921 1187452207 1594781053 1599980720 960983856 -335562817
       ***************************
       *  GEOMETRY OPTIMIZATION  *
       ***************************

FIRE optimizer config
       nMin:  5 steps
    dtStart:  0.2500 fs
      dtMax:  1.0000 fs
       fInc:  1.1000
       fDec:  0.5000
 alphaStart:  0.1000
     fAlpha:  0.9900
 Opt. latt.:  F
Convergence criteria:
       Energy:  0.000010 Ha per atom
    Gradients:  0.001000 Ha/Angstrom
         Step:  0.010000 Angstrom
Stress energy:  0.000500 Ha per atom
 
--------
Geometry
--------
Formula: C12H26NO2PS
Atoms
  Index Symbol   x (angstrom)   y (angstrom)   z (angstrom)
      1      S     3.42718509    -0.50102490     0.21527510
      2      P     1.96206563    -0.68754138    -1.05838442
      3      O     1.36812470     0.94321870    -0.85244217
      4      O     0.87259804    -1.39855562     0.09715540
      5      C     0.23896954     0.89687790    -0.01450718
      6      C    -0.26656894    -0.58868993     0.07604645
      7      C     0.67685908     1.45815265     1.35886708
      8      C    -0.82282665     1.85514012    -0.59543982
      9      C    -1.15112244    -1.01381798    -1.12883152
     10      C    -1.07491831    -0.87852560     1.35987639
     11      H    -0.19820517     1.62865896     2.02256081
     12      H     1.38077463     0.76645661     1.86602732
     13      H     1.19517027     2.43283949     1.22868924
     14      H    -1.02934863     1.62278626    -1.66120627
     15      H    -1.77094811     1.79222859    -0.02055582
     16      H    -0.46114713     2.90549864    -0.55995219
     17      H    -2.14867267    -0.52638853    -1.08566127
     18      H    -0.67620541    -0.75254428    -2.09768810
     19      H    -1.30909821    -2.11396977    -1.11662186
     20      H    -1.93022124    -0.17668816     1.45541330
     21      H    -1.47419717    -1.91581192     1.34133260
     22      H    -0.43659113    -0.80031141     2.26471724
     23      C     4.72369190     0.37205537    -0.16859466
     24      C     5.94852288    -0.09498153     0.62985381
     25      N     7.16808454     0.60526495     0.16512711
     26      C     7.21709013     2.01095692     0.64578107
     27      C     7.19490171     2.95941554    -0.54670117
     28      C     9.57353714     0.26759902    -0.32520142
     29      C     8.38517167    -0.15045578     0.53906524
     30      H     4.92940358     0.24992486    -1.25344190
     31      H     4.50267170     1.44036996     0.03336142
     32      H     6.04990104    -1.19221680     0.46352321
     33      H     5.79369771     0.06006549     1.72266569
     34      H     8.62518157    -0.01880811     1.61822101
     35      H     8.24173217    -1.23936510     0.36241323
     36      H     9.29587976     0.22419265    -1.39992945
     37      H    10.42343712    -0.42550162    -0.14952136
     38      H     9.90372110     1.29652527    -0.07344447
     39      H     8.13030173     2.22527203     1.24504503
     40      H     6.35881585     2.26402520     1.30767544
     41      H     8.10815168     2.82221072    -1.16278603
     42      H     7.15881109     4.01025553    -0.18959308
     43      H     6.30123941     2.76630117    -1.17650306
 
Total System Charge             0.00000
Bonding info available!
 
 
------------------------
MM Engine configuration
------------------------
Force field type             UFF
 

Relaxing 129 nuclear degrees of freedom with FIRE.
 Rigid motions settings for: FIRE
 Atomic rotations (x,y,z):     T T T
 Atomic translations (x,y,z):  T T T
 Tolerance:                   1.000000000000000E-006
 
------------------------
UFF Engine configuration
------------------------
UFF Parameters file          general_db
UFF Elements file            elements_db
UFF MMAtomTypes file         mmatomtypes_db
 
  atom type UFF index
          1        35
          2        28
          3        16
          4         8
          5         1
          6        12
-----------------------
Assumed Input Structure
-----------------------
Atoms
      S        6.4764412034   -0.9467998474    0.4068109834         S_2   0.000000000000
      P        3.7077666876   -1.2992649087   -2.0000566875       P_3+3   0.000000000000
      O        2.5853809961    1.7824250100   -1.6108822294         O_3   0.000000000000
      O        1.6489713077   -2.6428870851    0.1835970888         O_3   0.000000000000
      C        0.4515869737    1.6948536000   -0.0274145979         C_3   0.000000000000
      C       -0.5037422821   -1.1124627484    0.1437069725         C_3   0.000000000000
      C        1.2790782818    2.7555091630    2.5678866279         C_3   0.000000000000
      C       -1.5549170224    3.5057067590   -1.1252181777         C_3   0.000000000000
      C       -2.1753061398   -1.9158383277   -2.1331824116         C_3   0.000000000000
      C       -2.0313012118   -1.6601727847    2.5697939414         C_3   0.000000000000
      H       -0.3745534878    3.0777193939    3.8220860074          H_   0.000000000000
      H        2.6092858855    1.4483930730    3.5262805710          H_   0.000000000000
      H        2.2585444838    4.5974003466    2.3218861481          H_   0.000000000000
      H       -1.9451869923    3.0666215811   -3.1392248936          H_   0.000000000000
      H       -3.3466069056    3.3868211920   -0.0388448639          H_   0.000000000000
      H       -0.8714417734    5.4905966923   -1.0581562835          H_   0.000000000000
      H       -4.0604028851   -0.9947301651   -2.0516024656          H_   0.000000000000
      H       -1.2778430353   -1.4221025860   -3.9640559979          H_   0.000000000000
      H       -2.4738370882   -3.9948239100   -2.1101094988          H_   0.000000000000
      H       -3.6475894998   -0.3338922370    2.7503325343          H_   0.000000000000
      H       -2.7858289053   -3.6203598318    2.5347512588          H_   0.000000000000
      H       -0.8250376733   -1.5123693793    4.2796953289          H_   0.000000000000
      C        8.9264839798    0.7030827595   -0.3185977377         C_3   0.000000000000
      C       11.2410790943   -0.1794890695    1.1902511971         C_3   0.000000000000
      N       13.5457166264    1.1437849964    0.3120450149         N_3   0.000000000000
      C       13.6383237659    3.8001578275    1.2203493591         C_3   0.000000000000
      C       13.5963937161    5.5924848593   -1.0331154890         C_3   0.000000000000
      C       18.0913632346    0.5056888648   -0.6145416099         C_3   0.000000000000
      C       15.8456779604   -0.2843202142    1.0186856681         C_3   0.000000000000
      H        9.3152227222    0.4722895333   -2.3686619054          H_   0.000000000000
      H        8.5088163423    2.7219047452    0.0630439536          H_   0.000000000000
      H       11.4326560530   -2.2529632379    0.8759319268          H_   0.000000000000
      H       10.9485019282    0.1135073264    3.2553663529          H_   0.000000000000
      H       16.2992309401   -0.0355421693    3.0579945163          H_   0.000000000000
      H       15.5746165987   -2.3420606048    0.6848617439          H_   0.000000000000
      H       17.5666668319    0.4236627089   -2.6454832579          H_   0.000000000000
      H       19.6974414293   -0.8040815292   -0.2825544143          H_   0.000000000000
      H       18.7153204975    2.4500776650   -0.1387899394          H_   0.000000000000
      H       15.3640435775    4.2051546857    2.3527941241          H_   0.000000000000
      H       12.0164204402    4.2783875705    2.4711484475          H_   0.000000000000
      H       15.3221860510    5.3332053243   -2.1973471417          H_   0.000000000000
      H       13.5281923321    7.5782846505   -0.3582789874          H_   0.000000000000
      H       11.9076167369    5.2275515986   -2.2232685650          H_   0.000000000000
End

Bonds
    1      2    1.000000000000
    1     23    1.000000000000
    2      3    1.000000000000
    2      4    1.000000000000
    3      5    1.000000000000
    4      6    1.000000000000
    5      6    1.000000000000
    5      7    1.000000000000
    5      8    1.000000000000
    6      9    1.000000000000
    6     10    1.000000000000
    7     11    1.000000000000
    7     12    1.000000000000
    7     13    1.000000000000
    8     14    1.000000000000
    8     15    1.000000000000
    8     16    1.000000000000
    9     17    1.000000000000
    9     18    1.000000000000
    9     19    1.000000000000
   10     20    1.000000000000
   10     21    1.000000000000
   10     22    1.000000000000
   23     24    1.000000000000
   23     30    1.000000000000
   23     31    1.000000000000
   24     25    1.000000000000
   24     32    1.000000000000
   24     33    1.000000000000
   25     26    1.000000000000
   25     29    1.000000000000
   26     27    1.000000000000
   26     39    1.000000000000
   26     40    1.000000000000
   27     41    1.000000000000
   27     42    1.000000000000
   27     43    1.000000000000
   28     29    1.000000000000
   28     36    1.000000000000
   28     37    1.000000000000
   28     38    1.000000000000
   29     34    1.000000000000
   29     35    1.000000000000
End


Geometry at FIRE step 1:
 
--------
Geometry
--------
Formula: C12H26NO2PS
Atoms
  Index Symbol   x (angstrom)   y (angstrom)   z (angstrom)
      1      S     3.42718442    -0.50102716     0.21527268
      2      P     1.96206652    -0.68754330    -1.05838436
      3      O     1.36812427     0.94321822    -0.85244279
      4      O     0.87259710    -1.39855598     0.09715591
      5      C     0.23897046     0.89687645    -0.01450867
      6      C    -0.26656957    -0.58869070     0.07604587
      7      C     0.67686021     1.45815287     1.35886784
      8      C    -0.82282650     1.85514028    -0.59543845
      9      C    -1.15112322    -1.01381742    -1.12883017
     10      C    -1.07491933    -0.87852495     1.35987626
     11      H    -0.19820151     1.62865798     2.02256067
     12      H     1.38077528     0.76645429     1.86602683
     13      H     1.19517272     2.43283760     1.22868803
     14      H    -1.02934828     1.62278686    -1.66120477
     15      H    -1.77094633     1.79222862    -0.02055285
     16      H    -0.46114566     2.90549888    -0.55995130
     17      H    -2.14867248    -0.52638710    -1.08566006
     18      H    -0.67620676    -0.75254140    -2.09768800
     19      H    -1.30909880    -2.11396845    -1.11662330
     20      H    -1.93022149    -0.17668750     1.45541309
     21      H    -1.47419781    -1.91581085     1.34133411
     22      H    -0.43659142    -0.80031095     2.26471716
     23      C     4.72369199     0.37205458    -0.16859631
     24      C     5.94852173    -0.09498091     0.62985267
     25      N     7.16808519     0.60526634     0.16512863
     26      C     7.21709011     2.01095350     0.64577920
     27      C     7.19490178     2.95941588    -0.54670113
     28      C     9.57353747     0.26760092    -0.32519989
     29      C     8.38516934    -0.15045665     0.53906579
     30      H     4.92940265     0.24992334    -1.25344205
     31      H     4.50266980     1.44036974     0.03335887
     32      H     6.04989951    -1.19221633     0.46352525
     33      H     5.79369625     0.06006762     1.72266431
     34      H     8.62518189    -0.01880797     1.61822041
     35      H     8.24173264    -1.23936616     0.36241241
     36      H     9.29588256     0.22419166    -1.39992959
     37      H    10.42343959    -0.42549625    -0.14951849
     38      H     9.90371852     1.29652674    -0.07344466
     39      H     8.13030070     2.22527171     1.24504527
     40      H     6.35881295     2.26402504     1.30767401
     41      H     8.10815080     2.82220687    -1.16278767
     42      H     7.15881581     4.01025537    -0.18959286
     43      H     6.30123815     2.76630287    -1.17650191
 
Total System Charge             0.00000
Bonding info available!
 
Geometry optimization converged

Optimized geometry:
 
--------
Geometry
--------
Formula: C12H26NO2PS
Atoms
  Index Symbol   x (angstrom)   y (angstrom)   z (angstrom)
      1      S     3.42718442    -0.50102716     0.21527268
      2      P     1.96206652    -0.68754330    -1.05838436
      3      O     1.36812427     0.94321822    -0.85244279
      4      O     0.87259710    -1.39855598     0.09715591
      5      C     0.23897046     0.89687645    -0.01450867
      6      C    -0.26656957    -0.58869070     0.07604587
      7      C     0.67686021     1.45815287     1.35886784
      8      C    -0.82282650     1.85514028    -0.59543845
      9      C    -1.15112322    -1.01381742    -1.12883017
     10      C    -1.07491933    -0.87852495     1.35987626
     11      H    -0.19820151     1.62865798     2.02256067
     12      H     1.38077528     0.76645429     1.86602683
     13      H     1.19517272     2.43283760     1.22868803
     14      H    -1.02934828     1.62278686    -1.66120477
     15      H    -1.77094633     1.79222862    -0.02055285
     16      H    -0.46114566     2.90549888    -0.55995130
     17      H    -2.14867248    -0.52638710    -1.08566006
     18      H    -0.67620676    -0.75254140    -2.09768800
     19      H    -1.30909880    -2.11396845    -1.11662330
     20      H    -1.93022149    -0.17668750     1.45541309
     21      H    -1.47419781    -1.91581085     1.34133411
     22      H    -0.43659142    -0.80031095     2.26471716
     23      C     4.72369199     0.37205458    -0.16859631
     24      C     5.94852173    -0.09498091     0.62985267
     25      N     7.16808519     0.60526634     0.16512863
     26      C     7.21709011     2.01095350     0.64577920
     27      C     7.19490178     2.95941588    -0.54670113
     28      C     9.57353747     0.26760092    -0.32519989
     29      C     8.38516934    -0.15045665     0.53906579
     30      H     4.92940265     0.24992334    -1.25344205
     31      H     4.50266980     1.44036974     0.03335887
     32      H     6.04989951    -1.19221633     0.46352525
     33      H     5.79369625     0.06006762     1.72266431
     34      H     8.62518189    -0.01880797     1.61822041
     35      H     8.24173264    -1.23936616     0.36241241
     36      H     9.29588256     0.22419166    -1.39992959
     37      H    10.42343959    -0.42549625    -0.14951849
     38      H     9.90371852     1.29652674    -0.07344466
     39      H     8.13030070     2.22527171     1.24504527
     40      H     6.35881295     2.26402504     1.30767401
     41      H     8.10815080     2.82220687    -1.16278767
     42      H     7.15881581     4.01025537    -0.18959286
     43      H     6.30123815     2.76630287    -1.17650191
 
Total System Charge             0.00000
Bonding info available!
 
Performing a single point calculation on the final geometry ...

-----------------------
Assumed Input Structure
-----------------------
Atoms
      S        6.4764399391   -0.9468041117    0.4068064097         S_2   0.000000000000
      P        3.7077683652   -1.2992685272   -2.0000565737       P_3+3   0.000000000000
      O        2.5853801706    1.7824241177   -1.6108834067         O_3   0.000000000000
      O        1.6489695449   -2.6428877686    0.1835980702         O_3   0.000000000000
      C        0.4515887135    1.6948508668   -0.0274174071         C_3   0.000000000000
      C       -0.5037434817   -1.1124641919    0.1437058667         C_3   0.000000000000
      C        1.2790804263    2.7555095788    2.5678880596         C_3   0.000000000000
      C       -1.5549167286    3.5057070481   -1.1252155988         C_3   0.000000000000
      C       -2.1753076293   -1.9158372582   -2.1331798672         C_3   0.000000000000
      C       -2.0313031387   -1.6601715505    2.5697936967         C_3   0.000000000000
      H       -0.3745465686    3.0777175265    3.8220857304          H_   0.000000000000
      H        2.6092871114    1.4483886879    3.5262796582          H_   0.000000000000
      H        2.2585491112    4.5973967643    2.3218838758          H_   0.000000000000
      H       -1.9451863401    3.0666227199   -3.1392220452          H_   0.000000000000
      H       -3.3466035470    3.3868212480   -0.0388392528          H_   0.000000000000
      H       -0.8714390009    5.4905971361   -1.0581545978          H_   0.000000000000
      H       -4.0604025163   -0.9947274600   -2.0516001747          H_   0.000000000000
      H       -1.2778455716   -1.4220971455   -3.9640558207          H_   0.000000000000
      H       -2.4738382054   -3.9948214092   -2.1101122243          H_   0.000000000000
      H       -3.6475899691   -0.3338909941    2.7503321335          H_   0.000000000000
      H       -2.7858301161   -3.6203578142    2.5347541105          H_   0.000000000000
      H       -0.8250382182   -1.5123685134    4.2796951915          H_   0.000000000000
      C        8.9264841502    0.7030812642   -0.3186008451         C_3   0.000000000000
      C       11.2410769171   -0.1794879067    1.1902490422         C_3   0.000000000000
      N       13.5457178554    1.1437876062    0.3120478850         N_3   0.000000000000
      C       13.6383237246    3.8001513569    1.2203458196         C_3   0.000000000000
      C       13.5963938625    5.5924854995   -1.0331154097         C_3   0.000000000000
      C       18.0913638683    0.5056924578   -0.6145387259         C_3   0.000000000000
      C       15.8456735574   -0.2843218705    1.0186867096         C_3   0.000000000000
      H        9.3152209593    0.4722866652   -2.3686621924          H_   0.000000000000
      H        8.5088127586    2.7219043177    0.0630391203          H_   0.000000000000
      H       11.4326531488   -2.2529623433    0.8759357727          H_   0.000000000000
      H       10.9484991684    0.1135113437    3.2553637425          H_   0.000000000000
      H       16.2992315541   -0.0355419112    3.0579933886          H_   0.000000000000
      H       15.5746174905   -2.3420626026    0.6848601970          H_   0.000000000000
      H       17.5666721175    0.4236608296   -2.6454835268          H_   0.000000000000
      H       19.6974460994   -0.8040713740   -0.2825490053          H_   0.000000000000
      H       18.7153156105    2.4500804461   -0.1387902839          H_   0.000000000000
      H       15.3640416400    4.2051540894    2.3527945720          H_   0.000000000000
      H       12.0164149526    4.2783872698    2.4711457379          H_   0.000000000000
      H       15.3221843865    5.3331980466   -2.1973502344          H_   0.000000000000
      H       13.5282012521    7.5782843482   -0.3582785866          H_   0.000000000000
      H       11.9076143515    5.2275548081   -2.2232663991          H_   0.000000000000
End

Bonds
    1      2    1.000000000000
    1     23    1.000000000000
    2      3    1.000000000000
    2      4    1.000000000000
    3      5    1.000000000000
    4      6    1.000000000000
    5      6    1.000000000000
    5      7    1.000000000000
    5      8    1.000000000000
    6      9    1.000000000000
    6     10    1.000000000000
    7     11    1.000000000000
    7     12    1.000000000000
    7     13    1.000000000000
    8     14    1.000000000000
    8     15    1.000000000000
    8     16    1.000000000000
    9     17    1.000000000000
    9     18    1.000000000000
    9     19    1.000000000000
   10     20    1.000000000000
   10     21    1.000000000000
   10     22    1.000000000000
   23     24    1.000000000000
   23     30    1.000000000000
   23     31    1.000000000000
   24     25    1.000000000000
   24     32    1.000000000000
   24     33    1.000000000000
   25     26    1.000000000000
   25     29    1.000000000000
   26     27    1.000000000000
   26     39    1.000000000000
   26     40    1.000000000000
   27     41    1.000000000000
   27     42    1.000000000000
   27     43    1.000000000000
   28     29    1.000000000000
   28     36    1.000000000000
   28     37    1.000000000000
   28     38    1.000000000000
   29     34    1.000000000000
   29     35    1.000000000000
End

Scanning modes in range provided by user.


    =====================
     CALCULATION RESULTS
    =====================

Energy (hartree)             0.05158554

Gradients (hartree/bohr)
  Index   Atom            d/dx            d/dy            d/dz
      1      S    0.0000392728    0.0001448302    0.0001527136
      2      P   -0.0000603200    0.0001283054   -0.0000021585
      3      O    0.0000249533    0.0000383461    0.0000471374
      4      O    0.0000553332    0.0000294873   -0.0000310936
      5      C   -0.0000574095    0.0000984949    0.0001012750
      6      C    0.0000378965    0.0000562990    0.0000431990
      7      C   -0.0000696244   -0.0000086638   -0.0000378524
      8      C   -0.0000101222    0.0000007298   -0.0000746236
      9      C    0.0000441971   -0.0000244957   -0.0000771949
     10      C    0.0000648751   -0.0000353874    0.0000158811
     11      H   -0.0002283029    0.0000668685    0.0000196278
     12      H   -0.0000371633    0.0001498220    0.0000365759
     13      H   -0.0001517127    0.0001240684    0.0000867679
     14      H   -0.0000241079   -0.0000257684   -0.0000841139
     15      H   -0.0001121654    0.0000092175   -0.0001764296
     16      H   -0.0000913549   -0.0000052779   -0.0000432020
     17      H   -0.0000174521   -0.0000781099   -0.0000672983
     18      H    0.0000787316   -0.0001720513    0.0000003027
     19      H    0.0000296818   -0.0000723462    0.0000984737
     20      H    0.0000178594   -0.0000343114    0.0000249301
     21      H    0.0000392266   -0.0000609637   -0.0000907582
     22      H    0.0000210006   -0.0000261023    0.0000112654
     23      C   -0.0000051177    0.0000488974    0.0001022709
     24      C    0.0000728275   -0.0000464297    0.0000653044
     25      N   -0.0000390498   -0.0000912493   -0.0001036720
     26      C    0.0000065011    0.0002047692    0.0001110899
     27      C   -0.0000022398   -0.0000260404   -0.0000057084
     28      C   -0.0000220284   -0.0001328742   -0.0001130610
     29      C    0.0001459134    0.0000447860   -0.0000482815
     30      H    0.0000557406    0.0000979039    0.0000064630
     31      H    0.0001236106    0.0000131082    0.0001644349
     32      H    0.0000959873   -0.0000363425   -0.0001409229
     33      H    0.0000972297   -0.0001451015    0.0000825027
     34      H   -0.0000182818   -0.0000223815    0.0000246126
     35      H   -0.0000329872    0.0000577979    0.0000376005
     36      H   -0.0001848535    0.0000553658   -0.0000060358
     37      H   -0.0001621286   -0.0003600389   -0.0002034713
     38      H    0.0001675930   -0.0001085641   -0.0000022204
     39      H    0.0000724333    0.0000089698   -0.0000225351
     40      H    0.0001921996    0.0000026207    0.0000901761
     41      H    0.0000586863    0.0002413672    0.0000992755
     42      H   -0.0002980512    0.0000031983   -0.0000152848
     43      H    0.0000827227   -0.0001127534   -0.0000759616

 -----------------------
 Normal Mode Frequencies
 -----------------------

 Index   Frequency (cm-1)   Intensity (km/mol)
     7            16.0351               0.0000
     8            18.0113               0.0000
     9            47.6085               0.0000
    10            79.2627               0.0000
    11            87.9969               0.0000
    12           120.5296               0.0000
    13           140.3139               0.0000
    14           168.9903               0.0000
    15           187.5990               0.0000
    16           204.3962               0.0000
    17           221.6624               0.0000
    18           236.4060               0.0000
    19           269.0537               0.0000
    20           302.9952               0.0000
    21           328.0564               0.0000
    22           336.0217               0.0000
    23           364.5435               0.0000
    24           385.5931               0.0000
    25           406.2101               0.0000
    26           435.2402               0.0000
    27           445.8997               0.0000
    28           472.5825               0.0000
    29           501.6020               0.0000
    30           503.1240               0.0000
    31           523.4181               0.0000
    32           546.8959               0.0000
    33           568.0711               0.0000
    34           582.5304               0.0000
    35           622.2785               0.0000
    36           645.3078               0.0000
    37           653.7304               0.0000
    38           668.9263               0.0000
    39           690.5629               0.0000
    40           727.9469               0.0000
    41           780.5973               0.0000
    42           811.3030               0.0000
    43           937.6340               0.0000
    44           989.3672               0.0000
    45           993.0038               0.0000
    46          1004.9911               0.0000
    47          1022.8698               0.0000
    48          1039.0593               0.0000
    49          1053.8768               0.0000
    50          1067.6979               0.0000
    51          1091.4574               0.0000
    52          1100.0633               0.0000
    53          1117.5199               0.0000
    54          1118.0865               0.0000
    55          1135.6150               0.0000
    56          1143.5412               0.0000
    57          1149.6573               0.0000
    58          1151.8944               0.0000
    59          1152.3038               0.0000
    60          1157.3538               0.0000
    61          1159.6937               0.0000
    62          1182.5808               0.0000
    63          1200.8948               0.0000
    64          1205.7711               0.0000
    65          1326.7699               0.0000
    66          1371.4580               0.0000
    67          1393.4903               0.0000
    68          1400.9823               0.0000
    69          1444.2339               0.0000
    70          1449.2044               0.0000
    71          1452.7442               0.0000
    72          1460.4031               0.0000
    73          1461.9151               0.0000
    74          1465.9809               0.0000
    75          1474.8421               0.0000
    76          1481.5768               0.0000
    77          1483.9363               0.0000
    78          1484.6893               0.0000
    79          1490.8544               0.0000
    80          1498.9874               0.0000
    81          1499.6808               0.0000
    82          1504.4168               0.0000
    83          1510.0124               0.0000
    84          1517.6015               0.0000
    85          1518.7142               0.0000
    86          1525.6958               0.0000
    87          1544.7660               0.0000
    88          1559.9913               0.0000
    89          1605.3512               0.0000
    90          1613.7696               0.0000
    91          1624.0474               0.0000
    92          1634.4519               0.0000
    93          1672.1262               0.0000
    94          1674.8441               0.0000
    95          1714.8091               0.0000
    96          1718.7921               0.0000
    97          1730.0842               0.0000
    98          1757.7698               0.0000
    99          1773.5220               0.0000
   100          1774.1513               0.0000
   101          1952.6752               0.0000
   102          1983.2700               0.0000
   103          1995.7923               0.0000
   104          2835.0014               0.0000
   105          2835.7910               0.0000
   106          2836.8503               0.0000
   107          2838.1188               0.0000
   108          2839.3881               0.0000
   109          2840.1987               0.0000
   110          2872.2971               0.0000
   111          2884.1032               0.0000
   112          2885.8434               0.0000
   113          2895.0454               0.0000
   114          2940.5219               0.0000
   115          2941.3489               0.0000
   116          2943.0064               0.0000
   117          2945.7910               0.0000
   118          2945.8613               0.0000
   119          2945.9154               0.0000
   120          2947.0447               0.0000
   121          2947.1047               0.0000
   122          2947.3561               0.0000
   123          2948.1355               0.0000
   124          2948.4740               0.0000
   125          2948.5559               0.0000
   126          2950.0791               0.0000
   127          2951.4797               0.0000
   128          2953.5372               0.0000
   129          2955.9682               0.0000

 Zero-point energy (Hartree):     0.3999

 ------------
 Normal Modes
 ------------

 Number of removed rigid normal modes: 6
 
 Mode:     7      Frequency (cm-1):       16.0351     Intensity (km/mol):        0.0000
 Index  Atom      ---- Displacements (x/y/z) ----
     1     S      -0.004254  -0.001976   0.061215
     2     P       0.015587  -0.051740   0.045466
     3     O       0.022496  -0.038454  -0.040185
     4     O      -0.008898   0.008821   0.059624
     5     C       0.006950   0.007365  -0.058709
     6     C      -0.003754   0.014651   0.000962
     7     C      -0.014482   0.068254  -0.076768
     8     C       0.023538  -0.012951  -0.122594
     9     C       0.015782  -0.035873   0.004347
    10     C      -0.029260   0.079315  -0.000534
    11     H      -0.025421   0.104254  -0.100432
    12     H      -0.027802   0.087385  -0.032124
    13     H      -0.006142   0.059048  -0.112415
    14     H       0.041425  -0.061172  -0.115550
    15     H       0.012696   0.019879  -0.136880
    16     H       0.029566  -0.013594  -0.164864
    17     H       0.017909  -0.027884  -0.036536
    18     H       0.034968  -0.083525   0.000877
    19     H       0.009035  -0.034379   0.052332
    20     H      -0.026601   0.089140  -0.048913
    21     H      -0.035498   0.081000   0.040161
    22     H      -0.045461   0.117264   0.007609
    23     C      -0.019405   0.022998   0.066364
    24     C       0.017079  -0.043911  -0.029159
    25     N      -0.006327   0.000921  -0.023020
    26     C       0.018440  -0.046375   0.112916
    27     C      -0.029255   0.070981   0.207184
    28     C      -0.029223   0.053396  -0.174588
    29     C       0.012657  -0.036505  -0.160399
    30     H      -0.070941   0.106699   0.047140
    31     H      -0.005842   0.008245   0.159321
    32     H       0.011515  -0.029178  -0.129750
    33     H       0.065969  -0.140880  -0.008422
    34     H       0.064743  -0.147915  -0.158407
    35     H       0.004665  -0.018225  -0.266548
    36     H      -0.081909   0.167673  -0.165621
    37     H      -0.021572   0.033564  -0.289576
    38     H      -0.015268   0.026117  -0.081374
    39     H       0.043875  -0.108553   0.096401
    40     H       0.046331  -0.108109   0.172779
    41     H      -0.055885   0.129504   0.154759
    42     H      -0.011477   0.035953   0.312050
    43     H      -0.056565   0.135071   0.226259
 
 Mode:     8      Frequency (cm-1):       18.0113     Intensity (km/mol):        0.0000
 Index  Atom      ---- Displacements (x/y/z) ----
     1     S       0.010710  -0.152564  -0.076972
     2     P      -0.033909  -0.084967  -0.035318
     3     O       0.065209  -0.048422  -0.037958
     4     O      -0.042681  -0.009909   0.002934
     5     C       0.091750   0.027624   0.001523
     6     C       0.005585   0.059059   0.031942
     7     C       0.172326   0.013966  -0.018455
     8     C       0.129953   0.086570   0.028964
     9     C      -0.058302   0.101323   0.064187
    10     C       0.029279   0.120480   0.060696
    11     H       0.204699   0.075372   0.008453
    12     H       0.145034  -0.024920  -0.033846
    13     H       0.229293  -0.019935  -0.045363
    14     H       0.079797   0.089564   0.038026
    15     H       0.145632   0.149104   0.061613
    16     H       0.194732   0.065004   0.007269
    17     H      -0.027330   0.162309   0.091056
    18     H      -0.072740   0.063303   0.046831
    19     H      -0.124744   0.111045   0.079680
    20     H       0.074745   0.173058   0.081370
    21     H      -0.033929   0.144422   0.083609
    22     H       0.063046   0.090834   0.039432
    23     C      -0.015048  -0.109414  -0.064212
    24     C      -0.014374  -0.047964  -0.030060
    25     N      -0.038754   0.021880   0.011312
    26     C      -0.127373   0.019149   0.028832
    27     C      -0.133619   0.031675   0.038857
    28     C      -0.004046   0.161082   0.083435
    29     C      -0.009405   0.082517   0.038111
    30     H       0.012292  -0.118130  -0.058000
    31     H      -0.061822  -0.115160  -0.085297
    32     H       0.048724  -0.041484  -0.034084
    33     H      -0.055205  -0.063367  -0.033566
    34     H      -0.051449   0.078212   0.047997
    35     H       0.055199   0.077657   0.015564
    36     H       0.032447   0.166339   0.073811
    37     H       0.026761   0.202546   0.097740
    38     H      -0.065910   0.173668   0.113023
    39     H      -0.160071   0.058756   0.064472
    40     H      -0.164052  -0.031647   0.000716
    41     H      -0.103468   0.087619   0.071113
    42     H      -0.202923   0.025664   0.049659
    43     H      -0.099937  -0.008780   0.003420
 
 Mode:     9      Frequency (cm-1):       47.6085     Intensity (km/mol):        0.0000
 Index  Atom      ---- Displacements (x/y/z) ----
     1     S       0.009183  -0.053614   0.076131
     2     P       0.042442  -0.003477   0.030925
     3     O       0.068980   0.004012   0.051362
     4     O      -0.013382  -0.008500  -0.024954
     5     C       0.040484   0.005160   0.012815
     6     C       0.003170   0.014955  -0.053971
     7     C       0.007719  -0.052956   0.047136
     8     C       0.083829   0.050447   0.008847
     9     C       0.048275   0.072138  -0.108050
    10     C      -0.062481  -0.005124  -0.100148
    11     H      -0.011231  -0.051126   0.021719
    12     H      -0.030096  -0.089673   0.049543
    13     H       0.039525  -0.063109   0.098056
    14     H       0.114833   0.091398  -0.006083
    15     H       0.062405   0.054226  -0.026212
    16     H       0.108425   0.040362   0.057019
    17     H       0.055722   0.089860  -0.135517
    18     H       0.094498   0.096429  -0.078851
    19     H       0.027062   0.074757  -0.152027
    20     H      -0.050889   0.011366  -0.118113
    21     H      -0.085266   0.004531  -0.150163
    22     H      -0.102387  -0.046807  -0.068434
    23     C      -0.027872   0.026284   0.134362
    24     C       0.007090   0.014765   0.073450
    25     N      -0.011146   0.006670   0.013209
    26     C      -0.010118   0.031167  -0.059910
    27     C      -0.194615  -0.026937  -0.103275
    28     C      -0.054279  -0.046760  -0.120268
    29     C       0.009541   0.038867   0.007985
    30     H      -0.041189   0.123719   0.120737
    31     H      -0.067284   0.000842   0.226365
    32     H      -0.001878   0.015439   0.063962
    33     H       0.059684   0.016101   0.080228
    34     H       0.085707   0.148052  -0.022308
    35     H      -0.001530   0.020344   0.131709
    36     H      -0.123828  -0.186715  -0.096719
    37     H      -0.029288  -0.008032  -0.088922
    38     H      -0.060583  -0.007330  -0.272956
    39     H       0.060679   0.100110  -0.192465
    40     H       0.066789   0.022756   0.042896
    41     H      -0.266339  -0.028749  -0.209913
    42     H      -0.183980  -0.010816  -0.149779
    43     H      -0.265599  -0.084406   0.016003
 
 Mode:    10      Frequency (cm-1):       79.2627     Intensity (km/mol):        0.0000
 Index  Atom      ---- Displacements (x/y/z) ----
     1     S      -0.003693  -0.050820   0.047026
     2     P      -0.011244  -0.027243   0.050578
     3     O       0.022452  -0.015087   0.058014
     4     O      -0.049941  -0.006043   0.028254
     5     C      -0.006903  -0.003314   0.020244
     6     C      -0.040890   0.007701  -0.025899
     7     C      -0.039366  -0.046246   0.047925
     8     C       0.035261   0.033110   0.004202
     9     C       0.014637   0.042653  -0.081489
    10     C      -0.119253   0.005796  -0.075726
    11     H      -0.057506  -0.040965   0.022713
    12     H      -0.072604  -0.076189   0.054017
    13     H      -0.011530  -0.055779   0.088206
    14     H       0.066064   0.059475  -0.007489
    15     H       0.014051   0.043763  -0.029883
    16     H       0.059127   0.023737   0.038493
    17     H       0.018008   0.053199  -0.120713
    18     H       0.061682   0.059746  -0.053767
    19     H       0.002484   0.044163  -0.112892
    20     H      -0.110815   0.021206  -0.113726
    21     H      -0.139021   0.014058  -0.113650
    22     H      -0.169030  -0.019610  -0.038533
    23     C      -0.001495  -0.077101  -0.015941
    24     C      -0.001170   0.020393   0.038023
    25     N      -0.022509   0.018575  -0.022810
    26     C      -0.006056   0.022874  -0.037987
    27     C       0.230419   0.004123  -0.057329
    28     C       0.008802   0.136215  -0.010229
    29     C      -0.003323   0.022208  -0.078833
    30     H       0.013730  -0.182346  -0.001328
    31     H      -0.009478  -0.056220  -0.133287
    32     H       0.025011   0.007236   0.141923
    33     H      -0.013736   0.114731   0.022817
    34     H      -0.030098  -0.077146  -0.060971
    35     H       0.022494   0.037791  -0.195837
    36     H       0.013475   0.315976  -0.018704
    37     H      -0.006731   0.089526  -0.119016
    38     H       0.034972   0.085603   0.162437
    39     H      -0.093628  -0.032231   0.115095
    40     H      -0.101277   0.093977  -0.188964
    41     H       0.312854  -0.049714   0.078406
    42     H       0.231603   0.012007  -0.080407
    43     H       0.310247   0.035493  -0.182378
 
 Mode:    11      Frequency (cm-1):       87.9969     Intensity (km/mol):        0.0000
 Index  Atom      ---- Displacements (x/y/z) ----
     1     S       0.032574  -0.008041   0.006691
     2     P      -0.010374   0.046804   0.048197
     3     O       0.015064   0.048815   0.101721
     4     O       0.000579   0.046322   0.055682
     5     C      -0.048875   0.027550   0.017315
     6     C      -0.021023   0.014408   0.003610
     7     C      -0.155386   0.052590   0.039259
     8     C      -0.031892  -0.006058  -0.069806
     9     C       0.033847  -0.015614  -0.029086
    10     C      -0.069006  -0.001277  -0.029761
    11     H      -0.198445   0.003525  -0.004982
    12     H      -0.134424   0.090512   0.064930
    13     H      -0.205059   0.082754   0.067122
    14     H       0.049751  -0.024885  -0.081524
    15     H      -0.070721  -0.024185  -0.135543
    16     H      -0.061840   0.003756  -0.057393
    17     H       0.019068  -0.042430  -0.067616
    18     H       0.057851  -0.007506  -0.014947
    19     H       0.063831  -0.019939  -0.029946
    20     H      -0.090516  -0.021600  -0.070281
    21     H      -0.042946  -0.011143  -0.042853
    22     H      -0.109756   0.017074  -0.002579
    23     C       0.055412  -0.073048  -0.066080
    24     C       0.083702  -0.128395  -0.136783
    25     N       0.069271  -0.056676  -0.071189
    26     C      -0.031973  -0.062954  -0.040261
    27     C      -0.156960  -0.037456  -0.018174
    28     C       0.132373   0.094853   0.108121
    29     C       0.085030   0.004444   0.002714
    30     H      -0.009031  -0.076899  -0.077814
    31     H       0.103525  -0.066903  -0.052508
    32     H       0.105638  -0.107504  -0.260876
    33     H       0.099163  -0.244738  -0.117819
    34     H      -0.006483  -0.006367   0.024669
    35     H       0.156713   0.000650  -0.033388
    36     H       0.227664   0.084348   0.084183
    37     H       0.164246   0.151238   0.176047
    38     H       0.043378   0.115405   0.140174
    39     H      -0.025966   0.005424  -0.074492
    40     H      -0.019041  -0.153933   0.011174
    41     H      -0.154427   0.065502  -0.038253
    42     H      -0.254319  -0.049328   0.006872
    43     H      -0.147792  -0.109314  -0.008076
 
 Mode:    12      Frequency (cm-1):      120.5296     Intensity (km/mol):        0.0000
 Index  Atom      ---- Displacements (x/y/z) ----
     1     S       0.045147  -0.107472  -0.080912
     2     P      -0.020805   0.049232  -0.025138
     3     O       0.055021   0.055336   0.116121
     4     O       0.022187   0.027102  -0.005788
     5     C      -0.022893   0.028105   0.011888
     6     C       0.010088   0.007072   0.018855
     7     C      -0.152784   0.088528   0.025993
     8     C      -0.005103  -0.024891  -0.109851
     9     C      -0.009627  -0.021656   0.042558
    10     C       0.044255  -0.019232   0.035172
    11     H      -0.200552   0.009716  -0.016925
    12     H      -0.093689   0.163121   0.049993
    13     H      -0.246332   0.140665   0.042395
    14     H       0.098526  -0.062578  -0.121860
    15     H      -0.052702  -0.045490  -0.189659
    16     H      -0.048074  -0.010201  -0.109215
    17     H      -0.014400  -0.032594   0.053834
    18     H      -0.030503  -0.035700   0.028801
    19     H       0.002352  -0.023310   0.062544
    20     H       0.028987  -0.039347   0.052471
    21     H       0.069396  -0.029134   0.041620
    22     H       0.061984  -0.008408   0.022055
    23     C       0.052622  -0.112336  -0.062927
    24     C      -0.002472   0.030581   0.099682
    25     N      -0.006165   0.028937   0.090005
    26     C      -0.003417   0.039593   0.057546
    27     C       0.030730   0.014556   0.036936
    28     C      -0.085045  -0.055116  -0.146959
    29     C       0.018053   0.044711   0.038307
    30     H       0.152142  -0.233669  -0.030684
    31     H       0.007641  -0.094239  -0.205342
    32     H       0.044536   0.012462   0.252720
    33     H      -0.092715   0.161826   0.067899
    34     H       0.143148   0.148973  -0.002608
    35     H      -0.007659   0.027654   0.168136
    36     H      -0.208669  -0.187530  -0.110160
    37     H      -0.059084  -0.026597  -0.160768
    38     H      -0.071736  -0.020231  -0.305754
    39     H      -0.010876   0.042277   0.069081
    40     H      -0.023498   0.063348   0.023001
    41     H       0.042225  -0.001410   0.058402
    42     H       0.029133   0.022269   0.014331
    43     H       0.043337   0.006980   0.021461
 
 Mode:    13      Frequency (cm-1):      140.3139     Intensity (km/mol):        0.0000
 Index  Atom      ---- Displacements (x/y/z) ----
     1     S       0.009712   0.078489   0.002520
     2     P      -0.012160  -0.035503   0.038867
     3     O      -0.052414  -0.033506  -0.055750
     4     O      -0.020272   0.011488   0.068769
     5     C      -0.011591  -0.013257   0.002563
     6     C      -0.028793   0.002402  -0.005695
     7     C       0.064368  -0.061446  -0.001015
     8     C      -0.021949   0.019568   0.077163
     9     C       0.034898   0.001767  -0.055451
    10     C      -0.108368   0.028632  -0.049745
    11     H       0.092081  -0.015920   0.023953
    12     H       0.025850  -0.114092  -0.020641
    13     H       0.124248  -0.093752  -0.002652
    14     H      -0.085458   0.042365   0.084731
    15     H       0.006479   0.033178   0.124658
    16     H       0.005549   0.010041   0.078183
    17     H       0.025001  -0.014735  -0.095068
    18     H       0.067627   0.027045  -0.032635
    19     H       0.054504  -0.001102  -0.076071
    20     H      -0.109503   0.034774  -0.108965
    21     H      -0.115108   0.031472  -0.060661
    22     H      -0.163388   0.038620  -0.012269
    23     C       0.082876  -0.099167  -0.164143
    24     C       0.028795   0.002448  -0.023654
    25     N       0.040649   0.022561   0.033189
    26     C       0.004255   0.020463   0.048869
    27     C      -0.036255   0.042363   0.066912
    28     C      -0.011529  -0.074942  -0.077935
    29     C       0.047385   0.042537   0.054970
    30     H       0.108288  -0.358062  -0.130522
    31     H       0.148586  -0.039957  -0.409499
    32     H       0.067103  -0.005331   0.057101
    33     H      -0.067347   0.063472  -0.045822
    34     H       0.120856   0.165160   0.023666
    35     H       0.032287   0.021324   0.201208
    36     H      -0.060867  -0.297324  -0.056471
    37     H       0.027884  -0.002185   0.018030
    38     H      -0.054227  -0.008437  -0.293314
    39     H       0.010809   0.042912   0.032083
    40     H       0.002218  -0.014642   0.060655
    41     H      -0.020058   0.106365   0.076901
    42     H      -0.099919   0.033315   0.087900
    43     H      -0.014081   0.007947   0.047379
 
 Mode:    14      Frequency (cm-1):      168.9903     Intensity (km/mol):        0.0000
 Index  Atom      ---- Displacements (x/y/z) ----
     1     S       0.052674  -0.075988  -0.099741
     2     P      -0.057265  -0.057232   0.015102
     3     O       0.007622  -0.038278   0.046201
     4     O      -0.037996   0.003221   0.081282
     5     C      -0.016018  -0.011694   0.019264
     6     C      -0.043369   0.000726   0.019955
     7     C      -0.032896  -0.023370   0.028388
     8     C       0.018293   0.006091  -0.011379
     9     C      -0.003542  -0.005403  -0.011903
    10     C      -0.114575   0.033361  -0.014709
    11     H      -0.040559  -0.017633   0.016842
    12     H      -0.042736  -0.035627   0.028228
    13     H      -0.021509  -0.027851   0.041620
    14     H       0.035704  -0.000559  -0.013289
    15     H       0.004570   0.033909  -0.031454
    16     H       0.042917  -0.002344  -0.013673
    17     H      -0.004055  -0.002853  -0.048443
    18     H       0.021108  -0.009536  -0.000603
    19     H      -0.004665  -0.005155  -0.010713
    20     H      -0.107869   0.049411  -0.068813
    21     H      -0.133047   0.040565  -0.019771
    22     H      -0.160426   0.035923   0.017022
    23     C      -0.041561   0.153030   0.035898
    24     C       0.022044   0.070715  -0.093450
    25     N       0.047103   0.062981  -0.059157
    26     C       0.071666   0.048465  -0.007683
    27     C       0.076087   0.104591   0.037844
    28     C       0.056162  -0.125718   0.051467
    29     C      -0.000258   0.021112   0.038994
    30     H      -0.069423   0.416220   0.001729
    31     H      -0.124905   0.088503   0.292664
    32     H      -0.009936   0.085260  -0.213675
    33     H       0.078336  -0.044437  -0.069234
    34     H      -0.025565   0.085328   0.037554
    35     H      -0.040857   0.011834   0.128004
    36     H       0.136728  -0.343908   0.039919
    37     H       0.054174  -0.077463   0.254093
    38     H       0.016151  -0.069493  -0.127531
    39     H       0.087981   0.020649  -0.021219
    40     H       0.089887   0.031214   0.021796
    41     H       0.012764   0.035938  -0.041653
    42     H       0.214706   0.092379   0.088990
    43     H       0.001902   0.223065   0.106763
 
 Mode:    15      Frequency (cm-1):      187.5990     Intensity (km/mol):        0.0000
 Index  Atom      ---- Displacements (x/y/z) ----
     1     S      -0.016443   0.007511   0.031787
     2     P       0.014622   0.008017   0.000948
     3     O       0.009538   0.004954   0.001955
     4     O       0.005125  -0.007297  -0.020662
     5     C       0.008042   0.000948  -0.001912
     6     C       0.009968  -0.001582  -0.003645
     7     C       0.000122   0.006084  -0.001174
     8     C       0.009330  -0.001420  -0.008079
     9     C      -0.002775   0.004645   0.004853
    10     C       0.027968  -0.009214   0.005285
    11     H      -0.003660   0.004640  -0.005776
    12     H      -0.000230   0.010401   0.004691
    13     H      -0.002608   0.007590  -0.001090
    14     H       0.017518  -0.000519  -0.009930
    15     H       0.005789  -0.005340  -0.014242
    16     H       0.005617  -0.000213  -0.004723
    17     H       0.000855   0.011259   0.013031
    18     H      -0.006340   0.000482   0.001915
    19     H      -0.010630   0.005777   0.005955
    20     H       0.029959  -0.009034   0.021352
    21     H       0.027412  -0.009001   0.004696
    22     H       0.041084  -0.015372  -0.003292
    23     C      -0.028163   0.021558   0.035122
    24     C       0.008774  -0.072445  -0.074146
    25     N      -0.008661  -0.007658  -0.016159
    26     C      -0.095455  -0.009297  -0.000105
    27     C       0.078284  -0.000816   0.003073
    28     C      -0.031359  -0.018567  -0.042432
    29     C       0.011985   0.055761   0.045846
    30     H      -0.088599   0.113524   0.013507
    31     H      -0.012200   0.006453   0.129553
    32     H       0.014598  -0.047924  -0.234631
    33     H       0.051503  -0.209825  -0.048615
    34     H       0.045268   0.184666   0.023054
    35     H       0.037963   0.028911   0.191697
    36     H      -0.026230  -0.292994  -0.032884
    37     H       0.040389   0.110859   0.118922
    38     H      -0.145799   0.074188  -0.271631
    39     H      -0.187512   0.000745   0.137859
    40     H      -0.194435  -0.025618  -0.122894
    41     H       0.281841   0.176398   0.266206
    42     H      -0.218337  -0.011021   0.003672
    43     H       0.295700  -0.160234  -0.258210
 
 Mode:    16      Frequency (cm-1):      204.3962     Intensity (km/mol):        0.0000
 Index  Atom      ---- Displacements (x/y/z) ----
     1     S      -0.006690   0.033687   0.001832
     2     P       0.044539   0.002173   0.029218
     3     O       0.106318   0.010982   0.083788
     4     O       0.098786   0.024538   0.077523
     5     C       0.075281   0.003819   0.037013
     6     C       0.088624  -0.003842   0.018741
     7     C       0.003786   0.014807   0.058460
     8     C       0.104259  -0.013590  -0.029821
     9     C       0.165633  -0.030799  -0.030620
    10     C       0.032125  -0.018831  -0.024208
    11     H      -0.031025  -0.001456   0.016942
    12     H      -0.005798   0.027767   0.090608
    13     H      -0.008635   0.024531   0.082298
    14     H       0.176278  -0.020423  -0.042479
    15     H       0.068892  -0.026321  -0.090530
    16     H       0.089952  -0.009177  -0.009840
    17     H       0.142543  -0.076370  -0.069531
    18     H       0.186195   0.004137  -0.011247
    19     H       0.219796  -0.038934  -0.051511
    20     H       0.005034  -0.044689  -0.078404
    21     H       0.066964  -0.032053  -0.039647
    22     H      -0.019924   0.008969   0.010036
    23     C      -0.066480   0.002018  -0.143138
    24     C      -0.125679   0.043402  -0.096720
    25     N      -0.125964   0.012533  -0.092287
    26     C      -0.101226  -0.006899  -0.024227
    27     C      -0.037714   0.064601   0.031508
    28     C      -0.114328  -0.103921   0.080849
    29     C      -0.195831  -0.064648  -0.033257
    30     H      -0.078455  -0.129508  -0.131776
    31     H      -0.061678   0.023219  -0.248423
    32     H      -0.138102   0.031511  -0.043665
    33     H      -0.156892   0.085543  -0.105019
    34     H      -0.273576  -0.127261  -0.008167
    35     H      -0.226161  -0.051397  -0.099275
    36     H      -0.037194  -0.034539   0.058256
    37     H      -0.174740  -0.170197   0.113315
    38     H      -0.068177  -0.138032   0.157855
    39     H      -0.115926  -0.066332   0.018223
    40     H      -0.116127  -0.003704  -0.042813
    41     H      -0.021931   0.071604   0.053267
    42     H      -0.014791   0.044475   0.094558
    43     H      -0.025476   0.131273  -0.006385
 
 Mode:    17      Frequency (cm-1):      221.6624     Intensity (km/mol):        0.0000
 Index  Atom      ---- Displacements (x/y/z) ----
     1     S      -0.021840   0.011855   0.043748
     2     P       0.013646   0.002555   0.002498
     3     O       0.011758  -0.001838   0.008280
     4     O      -0.015199  -0.024554  -0.044393
     5     C       0.005211  -0.003321  -0.003458
     6     C      -0.002311  -0.004482  -0.008474
     7     C      -0.012993  -0.000286   0.001301
     8     C       0.020592   0.003391  -0.020706
     9     C      -0.038108   0.021768   0.010764
    10     C       0.032461  -0.016398   0.010396
    11     H      -0.022154   0.000747  -0.010943
    12     H      -0.019654   0.001664   0.012637
    13     H      -0.011414  -0.000404   0.006858
    14     H       0.043072   0.009999  -0.026750
    15     H       0.008770   0.002954  -0.040115
    16     H       0.022923   0.002326  -0.008787
    17     H      -0.021879   0.053769   0.027796
    18     H      -0.041050   0.002542   0.004103
    19     H      -0.075228   0.027247   0.015402
    20     H       0.048559  -0.002291   0.050964
    21     H       0.013534  -0.009040   0.003513
    22     H       0.063390  -0.046253  -0.008501
    23     C      -0.005500  -0.036892  -0.019118
    24     C       0.004870  -0.022960  -0.030024
    25     N      -0.005151   0.001661  -0.024928
    26     C      -0.023913  -0.002054  -0.004379
    27     C       0.033771   0.020283   0.013186
    28     C       0.007387   0.011315   0.004318
    29     C       0.002141   0.022746   0.002329
    30     H      -0.029152  -0.088065  -0.018021
    31     H       0.019128  -0.023888  -0.065237
    32     H       0.017132  -0.019508  -0.045184
    33     H       0.007101  -0.036576  -0.027839
    34     H      -0.006546   0.052742   0.000898
    35     H       0.020850   0.015187   0.034706
    36     H       0.088255  -0.252006  -0.005638
    37     H       0.088117   0.163358   0.211331
    38     H      -0.146920   0.107546  -0.188846
    39     H      -0.043875  -0.013242   0.030495
    40     H      -0.044629  -0.003549  -0.030946
    41     H      -0.181668  -0.315939  -0.230546
    42     H       0.527357   0.028853   0.037408
    43     H      -0.205490   0.365032   0.248387
 
 Mode:    18      Frequency (cm-1):      236.4060     Intensity (km/mol):        0.0000
 Index  Atom      ---- Displacements (x/y/z) ----
     1     S       0.017905  -0.030518  -0.053803
     2     P      -0.012077   0.023611  -0.007930
     3     O      -0.035481   0.031499  -0.043514
     4     O       0.066903   0.076965   0.095664
     5     C      -0.006393   0.021730   0.002081
     6     C       0.033931   0.016672   0.013363
     7     C       0.055090   0.024999  -0.018915
     8     C      -0.078668  -0.014539   0.071656
     9     C       0.134127  -0.065087  -0.035644
    10     C      -0.036102   0.031537  -0.030167
    11     H       0.086714   0.011643   0.025778
    12     H       0.087958   0.033211  -0.053510
    13     H       0.034735   0.032632  -0.045616
    14     H      -0.157242  -0.032148   0.091646
    15     H      -0.034143  -0.034904   0.143012
    16     H      -0.106951  -0.004121   0.036437
    17     H       0.076388  -0.181950  -0.067910
    18     H       0.128413   0.012279  -0.017830
    19     H       0.268121  -0.085018  -0.060469
    20     H      -0.101793  -0.034726  -0.135731
    21     H       0.051063  -0.002354  -0.002891
    22     H      -0.113100   0.138816   0.014070
    23     C      -0.005843   0.020306   0.049604
    24     C      -0.013569  -0.071623   0.007382
    25     N      -0.030120  -0.036549   0.050995
    26     C      -0.080301  -0.030341   0.018689
    27     C       0.033694  -0.088439  -0.026570
    28     C      -0.060518   0.071136  -0.036710
    29     C       0.005252   0.020557   0.029062
    30     H      -0.003512   0.150719   0.035617
    31     H      -0.028208  -0.008719   0.175996
    32     H      -0.005562  -0.056287  -0.093449
    33     H       0.001718  -0.150524   0.020604
    34     H       0.043298   0.058517   0.015889
    35     H       0.041160   0.010773   0.062469
    36     H      -0.120395   0.064679  -0.021551
    37     H      -0.021039   0.107544  -0.089381
    38     H      -0.090400   0.084400  -0.049643
    39     H      -0.130599  -0.015014   0.089637
    40     H      -0.136080  -0.009403  -0.062302
    41     H      -0.094203  -0.380600  -0.150273
    42     H       0.385929  -0.060043  -0.077724
    43     H      -0.109550   0.130727   0.109622
 
 Mode:    19      Frequency (cm-1):      269.0537     Intensity (km/mol):        0.0000
 Index  Atom      ---- Displacements (x/y/z) ----
     1     S      -0.001872  -0.035536   0.003641
     2     P      -0.001141   0.013259  -0.005292
     3     O      -0.016031   0.016307  -0.020072
     4     O       0.014904   0.021305   0.010212
     5     C      -0.006177   0.010853  -0.004075
     6     C       0.009091   0.007336  -0.001798
     7     C       0.017551   0.017079  -0.014756
     8     C      -0.039940  -0.004560   0.026986
     9     C       0.030644  -0.014647  -0.010634
    10     C       0.003042   0.005858  -0.008068
    11     H       0.031434   0.002486   0.007033
    12     H       0.040824   0.028647  -0.031876
    13     H      -0.002116   0.026091  -0.027893
    14     H      -0.073862  -0.009413   0.035075
    15     H      -0.020407  -0.016798   0.058402
    16     H      -0.055440   0.000966   0.013747
    17     H       0.010356  -0.056841  -0.008295
    18     H       0.020566   0.017548  -0.007091
    19     H       0.078114  -0.021762  -0.023993
    20     H      -0.024535  -0.024532  -0.034024
    21     H       0.042704  -0.009603   0.005532
    22     H      -0.012959   0.047823  -0.000591
    23     C      -0.006978  -0.022621   0.023554
    24     C      -0.014664   0.038748   0.067080
    25     N      -0.018115  -0.007412  -0.021525
    26     C       0.041465  -0.011156  -0.008202
    27     C      -0.008337   0.012016   0.009907
    28     C       0.023730   0.028104   0.024848
    29     C      -0.026955  -0.050463  -0.077158
    30     H       0.025973  -0.054560   0.033444
    31     H      -0.029102  -0.018784  -0.017415
    32     H      -0.023903   0.020135   0.185925
    33     H      -0.013403   0.142941   0.053134
    34     H      -0.069180  -0.160267  -0.055104
    35     H      -0.027521  -0.030041  -0.205684
    36     H       0.240410  -0.393645  -0.013111
    37     H       0.181504   0.321695   0.415200
    38     H      -0.293111   0.194038  -0.247199
    39     H       0.064679  -0.040320  -0.033821
    40     H       0.074922   0.005802   0.029216
    41     H       0.044707   0.146414   0.059724
    42     H      -0.168440  -0.000368   0.031100
    43     H       0.054229  -0.088751  -0.048408
 
 Mode:    20      Frequency (cm-1):      302.9952     Intensity (km/mol):        0.0000
 Index  Atom      ---- Displacements (x/y/z) ----
     1     S       0.002085   0.131614  -0.097738
     2     P      -0.026017  -0.034875  -0.014528
     3     O       0.048069  -0.043046   0.061037
     4     O      -0.002682  -0.023716   0.034834
     5     C       0.027079  -0.032256   0.023219
     6     C      -0.008897  -0.020844   0.024190
     7     C      -0.034175  -0.065128   0.060473
     8     C       0.132418   0.006978  -0.072686
     9     C      -0.019675  -0.007569   0.028234
    10     C      -0.043969   0.004747   0.018009
    11     H      -0.075866   0.009780  -0.012768
    12     H      -0.133669  -0.125831   0.119343
    13     H       0.061921  -0.111794   0.103910
    14     H       0.221796  -0.000280  -0.089923
    15     H       0.079313   0.062534  -0.157279
    16     H       0.192468  -0.013413  -0.055902
    17     H       0.023216   0.084153  -0.015696
    18     H       0.017978  -0.100613   0.022580
    19     H      -0.118565   0.007196   0.082939
    20     H       0.041973   0.105992   0.053348
    21     H      -0.176065   0.056338  -0.025452
    22     H      -0.033215  -0.115692   0.020901
    23     C       0.027410   0.107913  -0.020699
    24     C      -0.039196   0.002769   0.035162
    25     N      -0.009695  -0.040281   0.094487
    26     C       0.011634  -0.042004   0.051787
    27     C      -0.004958  -0.145479  -0.022412
    28     C      -0.045868   0.117662  -0.030521
    29     C       0.011045  -0.041550  -0.017691
    30     H       0.068809   0.148190  -0.017456
    31     H       0.050595   0.104470   0.026603
    32     H      -0.061290   0.003814   0.016029
    33     H      -0.074394  -0.006306   0.031644
    34     H       0.042106  -0.120054  -0.016161
    35     H       0.025758  -0.026120  -0.122533
    36     H       0.006227  -0.115999  -0.034913
    37     H       0.111887   0.351396   0.114297
    38     H      -0.285334   0.231913  -0.187443
    39     H       0.019893  -0.028641   0.033890
    40     H       0.020410  -0.005804   0.049560
    41     H      -0.004426  -0.175271  -0.013808
    42     H      -0.033364  -0.117152  -0.114672
    43     H       0.006661  -0.220621  -0.015938
 
 Mode:    21      Frequency (cm-1):      328.0564     Intensity (km/mol):        0.0000
 Index  Atom      ---- Displacements (x/y/z) ----
     1     S       0.000983  -0.001918  -0.001967
     2     P      -0.000759  -0.010856   0.001299
     3     O      -0.005524  -0.006193  -0.013283
     4     O       0.001880   0.002143   0.009732
     5     C       0.002717  -0.001359   0.001235
     6     C       0.007137   0.008983   0.006575
     7     C       0.013699  -0.000100  -0.002473
     8     C      -0.037238  -0.041244  -0.003689
     9     C       0.012875   0.037056  -0.008924
    10     C       0.007855   0.029368   0.013499
    11     H       0.010226   0.061942  -0.023117
    12     H      -0.034653  -0.030843   0.023311
    13     H       0.075524  -0.034689  -0.014719
    14     H       0.349509   0.229779  -0.140989
    15     H      -0.205111  -0.446975  -0.326425
    16     H      -0.313976   0.037819   0.448766
    17     H      -0.020268  -0.035913   0.041595
    18     H      -0.025136   0.147223   0.001683
    19     H       0.094648   0.025186  -0.088638
    20     H       0.110681   0.141019   0.104053
    21     H      -0.144042   0.089516  -0.045271
    22     H       0.058660  -0.117580  -0.008086
    23     C      -0.000405   0.001192   0.000391
    24     C      -0.000272   0.000353   0.000451
    25     N       0.000225  -0.000176   0.001166
    26     C       0.000779  -0.000260   0.000737
    27     C       0.000122  -0.001540  -0.000125
    28     C      -0.000089   0.000918  -0.000265
    29     C       0.000420  -0.000364   0.000011
    30     H       0.000157   0.004405   0.000160
    31     H      -0.001989   0.000301   0.003523
    32     H      -0.000302   0.000405   0.000126
    33     H      -0.000405  -0.000076   0.000491
    34     H       0.000862  -0.001112  -0.000005
    35     H       0.000383  -0.000204  -0.000894
    36     H       0.000063  -0.000565  -0.000246
    37     H       0.001082   0.002566   0.000447
    38     H      -0.001700   0.001687  -0.001323
    39     H       0.001194  -0.000103   0.000063
    40     H       0.001134   0.000115   0.001046
    41     H       0.000188  -0.001535  -0.000027
    42     H      -0.000709  -0.001200  -0.001282
    43     H       0.000301  -0.002930   0.000029
 
 Mode:    22      Frequency (cm-1):      336.0217     Intensity (km/mol):        0.0000
 Index  Atom      ---- Displacements (x/y/z) ----
     1     S      -0.005901   0.007874  -0.004244
     2     P      -0.005769  -0.010728  -0.001514
     3     O       0.003445  -0.008355   0.000567
     4     O      -0.007961  -0.007214  -0.002471
     5     C       0.008989   0.004026   0.009498
     6     C      -0.001100   0.002394   0.010318
     7     C       0.018345   0.025443  -0.003781
     8     C       0.016404   0.003358  -0.001043
     9     C      -0.016792   0.032047   0.010202
    10     C      -0.007351  -0.044630  -0.006247
    11     H       0.011003   0.073392  -0.024321
    12     H      -0.007111   0.017203   0.020608
    13     H       0.054990   0.003688  -0.025776
    14     H       0.171741   0.105199  -0.055072
    15     H      -0.050109  -0.140131  -0.126084
    16     H      -0.074068   0.029077   0.169513
    17     H       0.036371   0.145539  -0.054448
    18     H       0.037902  -0.077245   0.007978
    19     H      -0.149070   0.052186   0.071605
    20     H      -0.320996  -0.390890  -0.263431
    21     H       0.454768  -0.226249   0.160674
    22     H      -0.163543   0.404490   0.060396
    23     C      -0.001102   0.005332  -0.002424
    24     C      -0.000768   0.001175  -0.000456
    25     N       0.003397  -0.000380   0.005747
    26     C       0.005319  -0.000520   0.003314
    27     C       0.000491  -0.006360  -0.000695
    28     C       0.002292   0.004804  -0.002578
    29     C       0.005376   0.000428   0.001386
    30     H      -0.000337   0.006320  -0.002354
    31     H       0.001965   0.005827  -0.001386
    32     H      -0.001344   0.001687  -0.003042
    33     H      -0.003212  -0.001540  -0.000535
    34     H       0.008680   0.000110   0.000672
    35     H       0.005149   0.000638   0.000964
    36     H       0.000099   0.000778  -0.001867
    37     H       0.006397   0.009836  -0.002941
    38     H      -0.001911   0.007106  -0.006403
    39     H       0.007897   0.001383  -0.001152
    40     H       0.007604   0.000118   0.005948
    41     H      -0.000280  -0.006570  -0.001808
    42     H      -0.002379  -0.004805  -0.005886
    43     H       0.000330  -0.012313   0.001382
 
 Mode:    23      Frequency (cm-1):      364.5435     Intensity (km/mol):        0.0000
 Index  Atom      ---- Displacements (x/y/z) ----
     1     S      -0.023334   0.016694  -0.003701
     2     P      -0.019710  -0.048603   0.002056
     3     O       0.003481  -0.033972  -0.002933
     4     O      -0.010855  -0.012634   0.013188
     5     C       0.005511   0.006076   0.007406
     6     C       0.004251   0.006570   0.016795
     7     C      -0.020147   0.051587  -0.005035
     8     C       0.021438   0.019751  -0.014889
     9     C       0.017574   0.077315  -0.013983
    10     C       0.025454  -0.063010   0.006524
    11     H      -0.020459  -0.079604   0.028139
    12     H       0.092050   0.142614  -0.039680
    13     H      -0.165838   0.128738  -0.012378
    14     H      -0.035884  -0.004419   0.003909
    15     H       0.041121   0.084036   0.025056
    16     H       0.066035   0.007324  -0.084746
    17     H      -0.147600  -0.279139   0.258589
    18     H      -0.185442   0.559395   0.014609
    19     H       0.425164   0.016506  -0.353128
    20     H      -0.035600  -0.137851   0.004535
    21     H       0.124274  -0.102025  -0.017397
    22     H       0.018862  -0.009446   0.007541
    23     C      -0.010233   0.010175  -0.006345
    24     C      -0.002766   0.004342  -0.004004
    25     N       0.010613   0.001193   0.013463
    26     C       0.017692   0.000348   0.008458
    27     C       0.002248  -0.013642  -0.000680
    28     C       0.010760   0.009483  -0.006381
    29     C       0.016419   0.003675   0.005027
    30     H      -0.012297   0.009101  -0.006447
    31     H      -0.001437   0.012308  -0.007165
    32     H      -0.002980   0.005988  -0.010912
    33     H      -0.008527  -0.004260  -0.004043
    34     H       0.025241   0.006306   0.002763
    35     H       0.014646   0.003649   0.009088
    36     H       0.003279   0.004067  -0.004245
    37     H       0.017063   0.016158  -0.010929
    38     H       0.007162   0.012575  -0.013899
    39     H       0.026631   0.005336  -0.006316
    40     H       0.025470   0.000747   0.018041
    41     H      -0.000355  -0.012432  -0.004942
    42     H      -0.006308  -0.009991  -0.013077
    43     H       0.001091  -0.030035   0.006044
 
 Mode:    24      Frequency (cm-1):      385.5931     Intensity (km/mol):        0.0000
 Index  Atom      ---- Displacements (x/y/z) ----
     1     S      -0.048611  -0.007396   0.004315
     2     P      -0.022985   0.031579  -0.025936
     3     O       0.009542   0.021876   0.016786
     4     O       0.008810   0.018289  -0.004135
     5     C       0.004727  -0.001105  -0.001544
     6     C       0.001934  -0.002637   0.000907
     7     C       0.010818  -0.041008   0.013821
     8     C       0.032544   0.000712  -0.027883
     9     C       0.012409  -0.065435   0.020363
    10     C      -0.000885   0.018766   0.010626
    11     H      -0.039071   0.396318  -0.160481
    12     H      -0.370719  -0.286501   0.214684
    13     H       0.467874  -0.287335  -0.005509
    14     H       0.016007  -0.036138  -0.016528
    15     H       0.033705   0.046291  -0.022588
    16     H       0.075920  -0.012682  -0.060181
    17     H      -0.076012  -0.254708   0.124304
    18     H      -0.096599   0.111906   0.015215
    19     H       0.236000  -0.100073  -0.065363
    20     H      -0.038913  -0.019438  -0.043660
    21     H       0.054052  -0.002917   0.050981
    22     H      -0.041485   0.093157   0.029965
    23     C      -0.019488  -0.026048   0.016139
    24     C       0.006109  -0.005870   0.010307
    25     N       0.010401   0.001490  -0.006219
    26     C       0.012176   0.005410  -0.008378
    27     C       0.003276   0.021994   0.002482
    28     C       0.032659  -0.008075  -0.003923
    29     C       0.022353   0.013383   0.001989
    30     H      -0.019582  -0.032328   0.017295
    31     H      -0.010542  -0.021732   0.001502
    32     H       0.010499  -0.006248   0.022146
    33     H       0.012440   0.002497   0.009422
    34     H       0.024946   0.031927  -0.000667
    35     H       0.022288   0.009736   0.027820
    36     H       0.028908   0.003488  -0.003171
    37     H       0.018159  -0.028694  -0.011250
    38     H       0.056477  -0.016560   0.000518
    39     H       0.016052   0.007617  -0.014574
    40     H       0.017311  -0.000418  -0.000153
    41     H       0.002271   0.035635  -0.002205
    42     H      -0.000408   0.017184   0.017722
    43     H       0.000654   0.026545   0.004981
 
 Mode:    25      Frequency (cm-1):      406.2101     Intensity (km/mol):        0.0000
 Index  Atom      ---- Displacements (x/y/z) ----
     1     S       0.186514  -0.007516   0.000548
     2     P       0.092722   0.007995   0.060905
     3     O      -0.020488  -0.007970  -0.022844
     4     O      -0.019446  -0.017328  -0.032816
     5     C      -0.045581  -0.006886  -0.035815
     6     C      -0.035828   0.003693  -0.009607
     7     C      -0.046501  -0.032783  -0.043492
     8     C      -0.076848   0.013601   0.001678
     9     C      -0.117642   0.072173   0.032671
    10     C      -0.020840   0.002822   0.011330
    11     H      -0.078878   0.281414  -0.162860
    12     H      -0.308784  -0.204607   0.090827
    13     H       0.275243  -0.208086  -0.069171
    14     H      -0.185409   0.000026   0.027529
    15     H      -0.031805   0.069742   0.085530
    16     H      -0.035124   0.000946  -0.057167
    17     H      -0.188234  -0.079558   0.230859
    18     H      -0.250423   0.307553   0.031144
    19     H       0.048792   0.048063  -0.132457
    20     H      -0.082331  -0.065702  -0.025333
    21     H       0.069712  -0.033054   0.049913
    22     H      -0.049668   0.091501   0.021274
    23     C       0.091017   0.049525  -0.022028
    24     C       0.005347   0.004573  -0.013444
    25     N      -0.040248  -0.005934  -0.011910
    26     C      -0.064813  -0.012491   0.002287
    27     C      -0.013295  -0.023787  -0.006220
    28     C      -0.108088   0.001713   0.023605
    29     C      -0.086899  -0.042520  -0.013551
    30     H       0.096737   0.069629  -0.024820
    31     H       0.054030   0.034471   0.019094
    32     H      -0.008020   0.002293  -0.033456
    33     H       0.004925  -0.000241  -0.010258
    34     H      -0.111884  -0.094945  -0.002142
    35     H      -0.081674  -0.033297  -0.090238
    36     H      -0.088401  -0.012229   0.018370
    37     H      -0.083805   0.039670   0.045596
    38     H      -0.161305   0.016123   0.030828
    39     H      -0.094687  -0.026298   0.049730
    40     H      -0.094477  -0.000191  -0.038302
    41     H      -0.005350  -0.058437   0.014028
    42     H       0.012495  -0.019581  -0.017870
    43     H      -0.004062  -0.001384  -0.026697
 
 Mode:    26      Frequency (cm-1):      435.2402     Intensity (km/mol):        0.0000
 Index  Atom      ---- Displacements (x/y/z) ----
     1     S       0.012861   0.014077   0.007767
     2     P       0.009916   0.053174  -0.008257
     3     O       0.040627   0.032491   0.033719
     4     O      -0.028232  -0.007711  -0.041886
     5     C       0.027405  -0.017116  -0.003849
     6     C      -0.028360  -0.006998  -0.020819
     7     C       0.074657  -0.079014   0.012788
     8     C       0.046341  -0.044061  -0.025780
     9     C      -0.083116  -0.108993   0.051643
    10     C      -0.080251   0.101177  -0.015647
    11     H       0.137067  -0.387995   0.167613
    12     H       0.343045   0.047271  -0.186427
    13     H      -0.222283   0.085880   0.072804
    14     H       0.134275  -0.029583  -0.047067
    15     H       0.007606  -0.110315  -0.101405
    16     H      -0.000051  -0.031654   0.041600
    17     H      -0.189822  -0.335042   0.202300
    18     H      -0.246351   0.073686   0.023621
    19     H       0.178242  -0.150862  -0.011817
    20     H      -0.146877   0.045396  -0.162054
    21     H      -0.005071   0.071484   0.100764
    22     H      -0.151243   0.254485   0.018228
    23     C       0.018782  -0.003419   0.010738
    24     C       0.007829  -0.007464   0.010762
    25     N      -0.006229  -0.005267  -0.010276
    26     C      -0.017598  -0.001901  -0.009852
    27     C      -0.002933   0.014512  -0.000385
    28     C      -0.007203  -0.005745   0.003777
    29     C      -0.009057  -0.003774  -0.003818
    30     H       0.021630  -0.013139   0.012303
    31     H       0.025856  -0.000409   0.000946
    32     H       0.003906  -0.009149   0.016289
    33     H       0.015485   0.002132   0.010978
    34     H      -0.015456  -0.003764  -0.002460
    35     H      -0.005563  -0.004288  -0.006007
    36     H      -0.002860  -0.001249   0.002473
    37     H      -0.010413  -0.009243   0.005723
    38     H      -0.006721  -0.007542   0.010219
    39     H      -0.028560  -0.004510   0.006777
    40     H      -0.025792  -0.002670  -0.019808
    41     H      -0.000338   0.015026   0.003609
    42     H       0.006195   0.010172   0.014453
    43     H      -0.001767   0.033389  -0.007725
 
 Mode:    27      Frequency (cm-1):      445.8997     Intensity (km/mol):        0.0000
 Index  Atom      ---- Displacements (x/y/z) ----
     1     S       0.023013  -0.010832  -0.001493
     2     P      -0.034637   0.032142   0.036237
     3     O      -0.060388   0.024008  -0.086906
     4     O       0.019018   0.119763   0.108798
     5     C      -0.051937   0.038131  -0.076406
     6     C      -0.034887   0.017785   0.017969
     7     C       0.018690  -0.156912  -0.055309
     8     C       0.080042   0.185429  -0.106970
     9     C      -0.009591  -0.044694   0.041612
    10     C       0.040966  -0.176589   0.037002
    11     H       0.055583  -0.331983   0.032864
    12     H       0.095395  -0.199735  -0.217903
    13     H      -0.047324  -0.109244   0.067668
    14     H       0.233978   0.294039  -0.164559
    15     H      -0.006373   0.149918  -0.258996
    16     H       0.138974   0.164009   0.078311
    17     H      -0.003819  -0.033447   0.032518
    18     H      -0.017554  -0.057081   0.036347
    19     H       0.007961  -0.048148   0.076158
    20     H       0.037570  -0.204944   0.186805
    21     H       0.072765  -0.191893  -0.071919
    22     H       0.105020  -0.299970   0.006180
    23     C       0.026312  -0.018828   0.038134
    24     C       0.017943  -0.018275   0.037297
    25     N      -0.011165  -0.013284  -0.021291
    26     C      -0.036468  -0.003748  -0.023895
    27     C      -0.005171   0.037428   0.000245
    28     C       0.002007  -0.015886   0.005154
    29     C      -0.008211  -0.004071  -0.009262
[...]
    36     H      -0.051088  -0.009612  -0.191592
    37     H      -0.052967   0.038968  -0.014484
    38     H      -0.039083  -0.122646  -0.034670
    39     H      -0.061590  -0.023137  -0.034396
    40     H      -0.009468  -0.008575   0.007306
    41     H      -0.173320   0.041527   0.131937
    42     H      -0.019008   0.709522   0.245762
    43     H       0.427795   0.106860   0.308492
 
 Mode:   125      Frequency (cm-1):     2948.5559     Intensity (km/mol):        0.0000
 Index  Atom      ---- Displacements (x/y/z) ----
     1     S      -0.000009   0.000006   0.000008
     2     P       0.000031  -0.000029   0.000006
     3     O       0.000120   0.000932  -0.000352
     4     O       0.000035   0.000599  -0.000414
     5     C      -0.003480  -0.002641   0.002947
     6     C       0.004644  -0.001543   0.000116
     7     C       0.023941   0.022062  -0.016870
     8     C       0.042369   0.025283  -0.036550
     9     C      -0.034279   0.003771   0.023105
    10     C      -0.051971   0.018777  -0.028429
    11     H      -0.169569   0.026262   0.130038
    12     H       0.028557  -0.039104   0.028414
    13     H      -0.130489  -0.240535   0.033422
    14     H       0.024449   0.033056   0.174814
    15     H      -0.403178  -0.031070   0.246395
    16     H      -0.105231  -0.289821  -0.001145
    17     H       0.252250  -0.122660  -0.013056
    18     H       0.125269   0.062740  -0.240762
    19     H       0.008767   0.012389  -0.004347
    20     H       0.321038  -0.258359  -0.029829
    21     H       0.016407   0.011956   0.004691
    22     H       0.252143   0.029212   0.346121
    23     C       0.000074  -0.000216  -0.000231
    24     C      -0.000048   0.000207   0.000224
    25     N      -0.000000  -0.000006  -0.000002
    26     C       0.000210   0.000009   0.000009
    27     C      -0.000875  -0.000162  -0.000114
    28     C       0.000252   0.000183   0.000436
    29     C      -0.000068  -0.000153  -0.000214
    30     H      -0.000416   0.000293   0.002110
    31     H      -0.000423   0.002128   0.000479
    32     H       0.000214  -0.001924  -0.000359
    33     H       0.000310  -0.000348  -0.002102
    34     H       0.000494   0.000279   0.001943
    35     H       0.000212   0.001463   0.000315
    36     H      -0.001062  -0.000201  -0.003968
    37     H      -0.001002   0.000720  -0.000274
    38     H      -0.000845  -0.002631  -0.000749
    39     H      -0.001178  -0.000311  -0.000632
    40     H      -0.001003   0.000268   0.000644
    41     H       0.004515  -0.000635  -0.002888
    42     H       0.000138   0.001310   0.000447
    43     H       0.005485   0.001186   0.003734
 
 Mode:   126      Frequency (cm-1):     2950.0791     Intensity (km/mol):        0.0000
 Index  Atom      ---- Displacements (x/y/z) ----
     1     S       0.000079  -0.000042  -0.000085
     2     P       0.000022   0.000021   0.000014
     3     O       0.000261  -0.000363   0.000221
     4     O       0.000119   0.000512  -0.000284
     5     C      -0.001556   0.005164   0.000196
     6     C       0.000831  -0.002869   0.001005
     7     C       0.042518  -0.067681   0.014357
     8     C      -0.020333  -0.036723  -0.021622
     9     C      -0.006114   0.020597  -0.002895
    10     C      -0.016182   0.033054  -0.003010
    11     H      -0.230934   0.054595   0.167465
    12     H      -0.407215   0.403292  -0.283644
    13     H       0.150187   0.311554  -0.040746
    14     H       0.053004   0.064269   0.254368
    15     H       0.062986   0.012239  -0.032584
    16     H       0.114985   0.337746   0.012467
    17     H       0.107058  -0.055618  -0.002947
    18     H      -0.015501  -0.014212   0.034507
    19     H      -0.021971  -0.162920   0.001619
    20     H       0.213094  -0.179313  -0.022270
    21     H      -0.070246  -0.196690  -0.001662
    22     H       0.045408   0.000366   0.059091
    23     C      -0.000062   0.000156   0.000172
    24     C      -0.000004   0.000021   0.000019
    25     N       0.000005  -0.000004  -0.000004
    26     C      -0.000095   0.000012   0.000019
    27     C       0.000093  -0.000137  -0.000114
    28     C       0.000012  -0.000068  -0.000015
    29     C       0.000009   0.000033   0.000029
    30     H       0.000278  -0.000219  -0.001592
    31     H       0.000350  -0.001622  -0.000333
    32     H       0.000049  -0.000220  -0.000023
    33     H      -0.000005  -0.000028  -0.000225
    34     H      -0.000060  -0.000042  -0.000277
    35     H      -0.000041  -0.000308  -0.000063
    36     H       0.000028   0.000020   0.000104
    37     H      -0.000310   0.000267  -0.000064
    38     H       0.000143   0.000490   0.000126
    39     H       0.000467   0.000077   0.000283
    40     H       0.000558  -0.000177  -0.000393
    41     H      -0.001086   0.000197   0.000736
    42     H      -0.000064   0.001337   0.000468
    43     H       0.000091   0.000047   0.000106
 
 Mode:   127      Frequency (cm-1):     2951.4797     Intensity (km/mol):        0.0000
 Index  Atom      ---- Displacements (x/y/z) ----
     1     S       0.000031  -0.000017  -0.000032
     2     P      -0.000027   0.000002  -0.000003
     3     O       0.000011   0.000847  -0.000422
     4     O      -0.000233  -0.000716   0.000647
     5     C      -0.003202  -0.000518   0.002688
     6     C      -0.002159   0.002957  -0.000744
     7     C       0.033423  -0.017755  -0.003446
     8     C       0.039461   0.010235  -0.054221
     9     C       0.016859  -0.011259  -0.008048
    10     C       0.043823  -0.043386   0.017685
    11     H      -0.203168   0.041028   0.151947
    12     H      -0.166711   0.161683  -0.112995
    13     H      -0.008103   0.000603   0.001398
    14     H       0.055569   0.072111   0.334473
    15     H      -0.448314  -0.034031   0.278823
    16     H      -0.061246  -0.157529   0.005029
    17     H      -0.152508   0.075255   0.006604
    18     H      -0.043387  -0.020875   0.082017
    19     H       0.006767   0.071801   0.000748
    20     H      -0.387756   0.323066   0.037606
    21     H       0.061940   0.190946  -0.000752
    22     H      -0.176204  -0.014525  -0.238667
    23     C      -0.000003  -0.000002   0.000003
    24     C      -0.000010   0.000040   0.000043
    25     N       0.000008   0.000000  -0.000001
    26     C      -0.000090   0.000001   0.000001
    27     C       0.000042  -0.000001  -0.000004
    28     C      -0.000038   0.000029  -0.000035
    29     C      -0.000010  -0.000035  -0.000037
    30     H      -0.000004  -0.000002  -0.000030
    31     H       0.000009   0.000003   0.000005
    32     H       0.000046  -0.000364  -0.000064
    33     H       0.000051  -0.000065  -0.000406
    34     H       0.000074   0.000048   0.000368
    35     H       0.000042   0.000303   0.000059
    36     H       0.000087   0.000005   0.000342
    37     H       0.000354  -0.000287   0.000080
    38     H       0.000001  -0.000042  -0.000002
    39     H       0.000507   0.000110   0.000318
    40     H       0.000444  -0.000121  -0.000322
    41     H      -0.000261   0.000045   0.000163
    42     H      -0.000009   0.000007   0.000006
    43     H      -0.000196  -0.000047  -0.000122
 
 Mode:   128      Frequency (cm-1):     2953.5372     Intensity (km/mol):        0.0000
 Index  Atom      ---- Displacements (x/y/z) ----
     1     S       0.000054  -0.000025  -0.000061
     2     P      -0.000006  -0.000006   0.000006
     3     O       0.000001   0.000002  -0.000001
     4     O      -0.000001   0.000001  -0.000001
     5     C      -0.000005   0.000001   0.000004
     6     C      -0.000001   0.000002  -0.000000
     7     C       0.000061  -0.000042  -0.000002
     8     C       0.000035  -0.000010  -0.000079
     9     C       0.000018  -0.000028  -0.000003
    10     C       0.000021  -0.000021   0.000008
    11     H      -0.000364   0.000073   0.000273
    12     H      -0.000353   0.000339  -0.000237
    13     H       0.000014   0.000058  -0.000005
    14     H       0.000101   0.000130   0.000569
    15     H      -0.000498  -0.000033   0.000316
    16     H      -0.000002   0.000020   0.000017
    17     H      -0.000212   0.000110   0.000010
    18     H      -0.000019  -0.000003   0.000032
    19     H       0.000027   0.000215  -0.000001
    20     H      -0.000186   0.000157   0.000019
    21     H       0.000031   0.000095  -0.000001
    22     H      -0.000079  -0.000007  -0.000107
    23     C      -0.001767   0.004569   0.006123
    24     C       0.007054  -0.027805  -0.032903
    25     N      -0.005999  -0.000186  -0.000466
    26     C       0.067832  -0.000935  -0.001284
    27     C      -0.027835  -0.004241  -0.003021
    28     C      -0.013068   0.004718  -0.016026
    29     C       0.014565   0.037756   0.044129
    30     H       0.013729  -0.008410  -0.048762
    31     H       0.004067  -0.039231  -0.010324
    32     H      -0.031272   0.247132   0.045412
    33     H      -0.043962   0.049385   0.314931
    34     H      -0.094079  -0.056697  -0.414368
    35     H      -0.059351  -0.354128  -0.066940
    36     H       0.043234   0.006646   0.138963
    37     H       0.102589  -0.079574   0.022732
    38     H       0.002027   0.012191   0.010188
    39     H      -0.375424  -0.083440  -0.234429
    40     H      -0.343923   0.093069   0.251952
    41     H       0.138320  -0.024323  -0.082008
    42     H       0.005126   0.033734   0.010795
    43     H       0.163754   0.039737   0.105576
 
 Mode:   129      Frequency (cm-1):     2955.9682     Intensity (km/mol):        0.0000
 Index  Atom      ---- Displacements (x/y/z) ----
     1     S       0.000149  -0.000108  -0.000067
     2     P      -0.000012  -0.000009   0.000010
     3     O       0.000001   0.000001  -0.000002
     4     O      -0.000001   0.000002  -0.000001
     5     C      -0.000002   0.000001   0.000001
     6     C       0.000001  -0.000001  -0.000000
     7     C       0.000026  -0.000025   0.000001
     8     C       0.000009  -0.000006  -0.000024
     9     C      -0.000006   0.000011   0.000004
    10     C       0.000001  -0.000002   0.000001
    11     H      -0.000158   0.000035   0.000121
    12     H      -0.000180   0.000177  -0.000118
    13     H       0.000040   0.000083  -0.000007
    14     H       0.000029   0.000040   0.000168
    15     H      -0.000146  -0.000005   0.000092
    16     H       0.000009   0.000038   0.000005
    17     H       0.000066  -0.000034  -0.000005
    18     H       0.000019   0.000006  -0.000042
    19     H      -0.000012  -0.000096  -0.000002
    20     H      -0.000008   0.000007  -0.000000
    21     H       0.000006   0.000019  -0.000001
    22     H      -0.000005  -0.000000  -0.000008
    23     C      -0.003753   0.011523   0.011655
    24     C       0.012830  -0.056809  -0.053892
    25     N      -0.000638   0.004975   0.003354
    26     C       0.007446  -0.002020  -0.005777
    27     C      -0.002387   0.002723   0.002807
    28     C       0.008983   0.004650   0.013665
    29     C      -0.015044  -0.044966  -0.042043
    30     H       0.025561  -0.016414  -0.093823
    31     H       0.013250  -0.101247  -0.026373
    32     H      -0.069447   0.531296   0.093194
    33     H      -0.069627   0.083846   0.512336
    34     H       0.087601   0.056620   0.393381
    35     H       0.073850   0.433424   0.079027
    36     H      -0.036106  -0.007445  -0.113042
    37     H      -0.046797   0.032062  -0.010185
    38     H      -0.017618  -0.068889  -0.024685
    39     H      -0.014137   0.005677  -0.003425
    40     H      -0.064269   0.027071   0.053509
    41     H       0.025353  -0.004900  -0.016596
    42     H       0.001390  -0.025381  -0.009802
    43     H      -0.000646  -0.000328  -0.002076

PES point character: Geometry corresponds to a local minimum on the PES.




 ============================
 Statistical Thermal Analysis  ***  ideal gas assumed  ***
 ============================
  
 Pressure:                  1.000000 atm.
 Temperature:             298.150000 K



 Moments of Inertia [amu*bohr^2] and principal axis
 ==================================================

        1891.8344      12146.6558      12806.7424
 ------------------------------------------------
          -0.9926          0.1188          0.0245
          -0.1187         -0.9929          0.0059
          -0.0250         -0.0030         -0.9997


 The rotational contribution to the molecular entropy includes
 a term, dependent on the symmetry number sigma. The results 
 reported below were computed using sigma = 1, determined from
 the point group symmetry of the input geometry (NOSYM). 
 If this is not the correct symmetry, try symmetrizing the molecule before
 running the calculation (note: linear molecules should be aligned along one
 of the Cartesian axes).
 Contributions from frequencies below 20 1/cm are not included in vibrational sums.
 Their contributions, if any, are reported separately.


     Temp                                                        Transl      Rotat     Vibrat     Total
     ----                                                        ------      -----     ------     -----

     298.15   Entropy (cal/mol-K):                               42.778     34.042     47.729    124.549
              Nuclear Internal Energy (kcal/mol):                 0.889      0.889    258.918    260.695
              Constant Volume Heat Capacity (cal/mol-K):          2.981      2.981     56.627     62.588
          (c) Constant Volume Heat Capacity (cal/mol-K):          2.981      2.981     55.586     61.548

 Contributions from frequencies below 20 1/cm
 Frequency (1/cm):                                   16.035    18.011
 Entropy (cal/mol-K):                                 7.073     6.842
 Nuclear Internal Energy (kcal/mol):                  0.593     0.593
 Constant Volume Heat Capacity (cal/mol-K):           1.986     1.986

       Summary of energy terms
                                                   hartree              eV         kcal/mol           kJ/mol
                                      --------------------     -----------       ----------      -----------
      Energy from Engine:                0.051585544607603          1.4037            32.37           135.44
      Nuclear Internal Energy:           0.415443912325138         11.3048           260.70          1090.75
  (c) Nuclear Internal Energy:           0.414791543907051         11.2871           260.29          1089.04
      Internal Energy U:                 0.467029456932741         12.7085           293.07          1226.19
      pV/n = RT:                         0.000944186013486          0.0257             0.59             2.48
      Enthalpy H:                        0.467973642946227         12.7342           293.66          1228.66
      -T*S:                             -0.059177336228687         -1.6103           -37.13          -155.37
  (c) -T*S:                             -0.062394974849068         -1.6979           -39.15          -163.82
      Gibbs free energy:                 0.408796306717540         11.1239           256.52          1073.29
 
 
 
  (c) The properties marked with this symbol have been corrected using 'low vibrational frequency free rotor
      interpolation corrections'. For those terms all positive frequencies are used (also ones below 20 1/cm),
      but the contribution to the partition function of small vibrational frequencies is modified as described
      in the following paper:
      S. Grimme, 'Supramolecular Binding Thermodynamics by Dispersion-Corrected Density Functional Theory'
      (Chem. Eur. J. 2012, 18, 9955-9964)
      Configuration: Dampener Frequency          :   100.000 1/cm
                     Dampener Alpha              :     4.000
                     Averaging Moment of Inertia : 1.000E-44 kg m2
-----------
Bond orders
-----------

Description: Unknown
Only bonds with bond orders > 0.200 are printed.

 Index  Atom    Index  Atom    BondOrder
     1     S        2     P        1.000
     1     S       23     C        1.000
     2     P        3     O        1.000
     2     P        4     O        1.000
     3     O        5     C        1.000
     4     O        6     C        1.000
     5     C        6     C        1.000
     5     C        7     C        1.000
     5     C        8     C        1.000
     6     C        9     C        1.000
     6     C       10     C        1.000
     7     C       11     H        1.000
     7     C       12     H        1.000
     7     C       13     H        1.000
     8     C       14     H        1.000
     8     C       15     H        1.000
     8     C       16     H        1.000
     9     C       17     H        1.000
     9     C       18     H        1.000
     9     C       19     H        1.000
    10     C       20     H        1.000
    10     C       21     H        1.000
    10     C       22     H        1.000
    23     C       24     C        1.000
    23     C       30     H        1.000
    23     C       31     H        1.000
    24     C       25     N        1.000
    24     C       32     H        1.000
    24     C       33     H        1.000
    25     N       26     C        1.000
    25     N       29     C        1.000
    26     C       27     C        1.000
    26     C       39     H        1.000
    26     C       40     H        1.000
    27     C       41     H        1.000
    27     C       42     H        1.000
    27     C       43     H        1.000
    28     C       29     C        1.000
    28     C       36     H        1.000
    28     C       37     H        1.000
    28     C       38     H        1.000
    29     C       34     H        1.000
    29     C       35     H        1.000


--------------
Atomic charges
--------------
  Index   Atom    Charge
      1      S    0.0000
      2      P    0.0000
      3      O    0.0000
      4      O    0.0000
      5      C    0.0000
      6      C    0.0000
      7      C    0.0000
      8      C    0.0000
      9      C    0.0000
     10      C    0.0000
     11      H    0.0000
     12      H    0.0000
     13      H    0.0000
     14      H    0.0000
     15      H    0.0000
     16      H    0.0000
     17      H    0.0000
     18      H    0.0000
     19      H    0.0000
     20      H    0.0000
     21      H    0.0000
     22      H    0.0000
     23      C    0.0000
     24      C    0.0000
     25      N    0.0000
     26      C    0.0000
     27      C    0.0000
     28      C    0.0000
     29      C    0.0000
     30      H    0.0000
     31      H    0.0000
     32      H    0.0000
     33      H    0.0000
     34      H    0.0000
     35      H    0.0000
     36      H    0.0000
     37      H    0.0000
     38      H    0.0000
     39      H    0.0000
     40      H    0.0000
     41      H    0.0000
     42      H    0.0000
     43      H    0.0000


Dipole moment vector    (Debye):     0.00000000    0.00000000    0.00000000
              magnitude (Debye):     0.00000000

 
--------------------
Energy Decomposition
--------------------
Total Energy (hartree)                 0.05158554
Total Energy (eV)                      1.40371409
Bond bending (hartree)                 0.01438569
Bond stretching (hartree)              0.00769296
Bond torsion (hartree)                 0.00632430
Bond inversion (hartree)               0.00021223
Van Der Waals (hartree)                0.02297036
Coulomb (hartree)                      0.00000000
Embedding (hartree)                    0.00000000
Total Bonded (hartree)                 0.02861518
Total NonBonded (hartree)              0.02297036
 

Final PES point is a local minimum. Geometry optimization successful!


AMS application finished. Exiting.
NORMAL TERMINATION
     Total cpu time:       0.46
  Total system time:       0.03
 Total elapsed time:       0.56
