#  E (eV)   dos(E)     Int dos(E) EFermi =   -4.241 eV
 -20.000  0.3316E+00  0.3316E-02
 -19.990  0.3327E+00  0.6644E-02
 -19.980  0.3337E+00  0.9980E-02
 -19.970  0.3344E+00  0.1332E-01
 -19.960  0.3349E+00  0.1667E-01
 -19.950  0.3350E+00  0.2002E-01
 -19.940  0.3349E+00  0.2337E-01
 -19.930  0.3345E+00  0.2672E-01
 -19.920  0.3339E+00  0.3006E-01
 -19.910  0.3330E+00  0.3339E-01
 -19.900  0.3321E+00  0.3671E-01
 -19.890  0.3311E+00  0.4002E-01
 -19.880  0.3301E+00  0.4332E-01
 -19.870  0.3293E+00  0.4661E-01
 -19.860  0.3286E+00  0.4990E-01
 -19.850  0.3282E+00  0.5318E-01
 -19.840  0.3281E+00  0.5646E-01
 -19.830  0.3282E+00  0.5974E-01
 -19.820  0.3287E+00  0.6303E-01
 -19.810  0.3295E+00  0.6633E-01
 -19.800  0.3306E+00  0.6963E-01
 -19.790  0.3318E+00  0.7295E-01
 -19.780  0.3331E+00  0.7628E-01
 -19.770  0.3346E+00  0.7963E-01
 -19.760  0.3359E+00  0.8299E-01
 -19.750  0.3372E+00  0.8636E-01
 -19.740  0.3382E+00  0.8974E-01
 -19.730  0.3390E+00  0.9313E-01
 -19.720  0.3395E+00  0.9652E-01
 -19.710  0.3397E+00  0.9992E-01
 -19.700  0.3395E+00  0.1033E+00
 -19.690  0.3391E+00  0.1067E+00
 -19.680  0.3384E+00  0.1101E+00
 -19.670  0.3375E+00  0.1135E+00
 -19.660  0.3364E+00  0.1168E+00
 -19.650  0.3353E+00  0.1202E+00
 -19.640  0.3343E+00  0.1235E+00
 -19.630  0.3333E+00  0.1269E+00
 -19.620  0.3326E+00  0.1302E+00
 -19.610  0.3322E+00  0.1335E+00
 -19.600  0.3320E+00  0.1368E+00
 -19.590  0.3322E+00  0.1401E+00
 -19.580  0.3327E+00  0.1435E+00
 -19.570  0.3336E+00  0.1468E+00
 -19.560  0.3347E+00  0.1502E+00
 -19.550  0.3361E+00  0.1535E+00
 -19.540  0.3376E+00  0.1569E+00
 -19.530  0.3393E+00  0.1603E+00
 -19.520  0.3408E+00  0.1637E+00
 -19.510  0.3423E+00  0.1671E+00
 -19.500  0.3436E+00  0.1706E+00
 -19.490  0.3447E+00  0.1740E+00
 -19.480  0.3454E+00  0.1775E+00
 -19.470  0.3458E+00  0.1809E+00
 -19.460  0.3458E+00  0.1844E+00
 -19.450  0.3455E+00  0.1878E+00
 -19.440  0.3449E+00  0.1913E+00
 -19.430  0.3441E+00  0.1947E+00
 -19.420  0.3430E+00  0.1981E+00
 -19.410  0.3419E+00  0.2016E+00
 -19.400  0.3408E+00  0.2050E+00
 -19.390  0.3398E+00  0.2084E+00
 -19.380  0.3389E+00  0.2118E+00
 -19.370  0.3383E+00  0.2151E+00
 -19.360  0.3380E+00  0.2185E+00
 -19.350  0.3381E+00  0.2219E+00
 -19.340  0.3385E+00  0.2253E+00
 -19.330  0.3393E+00  0.2287E+00
 -19.320  0.3404E+00  0.2321E+00
 -19.310  0.3419E+00  0.2355E+00
 -19.300  0.3436E+00  0.2389E+00
 -19.290  0.3454E+00  0.2424E+00
 -19.280  0.3473E+00  0.2459E+00
 -19.270  0.3491E+00  0.2494E+00
 -19.260  0.3508E+00  0.2529E+00
 -19.250  0.3523E+00  0.2564E+00
 -19.240  0.3535E+00  0.2599E+00
 -19.230  0.3544E+00  0.2635E+00
 -19.220  0.3549E+00  0.2670E+00
 -19.210  0.3551E+00  0.2706E+00
 -19.200  0.3548E+00  0.2741E+00
 -19.190  0.3543E+00  0.2777E+00
 -19.180  0.3535E+00  0.2812E+00
 -19.170  0.3525E+00  0.2847E+00
 -19.160  0.3515E+00  0.2882E+00
 -19.150  0.3504E+00  0.2917E+00
 -19.140  0.3495E+00  0.2952E+00
 -19.130  0.3487E+00  0.2987E+00
 -19.120  0.3483E+00  0.3022E+00
 -19.110  0.3482E+00  0.3057E+00
 -19.100  0.3484E+00  0.3092E+00
 -19.090  0.3491E+00  0.3127E+00
 -19.080  0.3502E+00  0.3162E+00
 -19.070  0.3517E+00  0.3197E+00
 -19.060  0.3535E+00  0.3232E+00
 -19.050  0.3555E+00  0.3268E+00
 -19.040  0.3578E+00  0.3304E+00
 -19.030  0.3601E+00  0.3340E+00
 -19.020  0.3625E+00  0.3376E+00
 -19.010  0.3647E+00  0.3412E+00
 -19.000  0.3668E+00  0.3449E+00
 -18.990  0.3685E+00  0.3486E+00
 -18.980  0.3700E+00  0.3523E+00
 -18.970  0.3711E+00  0.3560E+00
 -18.960  0.3718E+00  0.3597E+00
 -18.950  0.3721E+00  0.3634E+00
 -18.940  0.3721E+00  0.3671E+00
 -18.930  0.3719E+00  0.3709E+00
 -18.920  0.3715E+00  0.3746E+00
 -18.910  0.3710E+00  0.3783E+00
 -18.900  0.3705E+00  0.3820E+00
 -18.890  0.3701E+00  0.3857E+00
 -18.880  0.3700E+00  0.3894E+00
 -18.870  0.3701E+00  0.3931E+00
 -18.860  0.3707E+00  0.3968E+00
 -18.850  0.3718E+00  0.4005E+00
 -18.840  0.3734E+00  0.4043E+00
 -18.830  0.3755E+00  0.4080E+00
 -18.820  0.3781E+00  0.4118E+00
 -18.810  0.3812E+00  0.4156E+00
 -18.800  0.3848E+00  0.4195E+00
 -18.790  0.3887E+00  0.4233E+00
 -18.780  0.3929E+00  0.4273E+00
 -18.770  0.3973E+00  0.4312E+00
 -18.760  0.4018E+00  0.4353E+00
 -18.750  0.4063E+00  0.4393E+00
 -18.740  0.4107E+00  0.4434E+00
 -18.730  0.4150E+00  0.4476E+00
 -18.720  0.4190E+00  0.4518E+00
 -18.710  0.4227E+00  0.4560E+00
 -18.700  0.4262E+00  0.4603E+00
 -18.690  0.4293E+00  0.4646E+00
 -18.680  0.4322E+00  0.4689E+00
 -18.670  0.4348E+00  0.4732E+00
 -18.660  0.4371E+00  0.4776E+00
 -18.650  0.4393E+00  0.4820E+00
 -18.640  0.4412E+00  0.4864E+00
 -18.630  0.4431E+00  0.4908E+00
 -18.620  0.4448E+00  0.4953E+00
 -18.610  0.4465E+00  0.4997E+00
 -18.600  0.4480E+00  0.5042E+00
 -18.590  0.4493E+00  0.5087E+00
 -18.580  0.4505E+00  0.5132E+00
 -18.570  0.4515E+00  0.5177E+00
 -18.560  0.4521E+00  0.5223E+00
 -18.550  0.4523E+00  0.5268E+00
 -18.540  0.4520E+00  0.5313E+00
 -18.530  0.4512E+00  0.5358E+00
 -18.520  0.4496E+00  0.5403E+00
 -18.510  0.4474E+00  0.5448E+00
 -18.500  0.4443E+00  0.5492E+00
 -18.490  0.4403E+00  0.5536E+00
 -18.480  0.4355E+00  0.5580E+00
 -18.470  0.4298E+00  0.5623E+00
 -18.460  0.4233E+00  0.5665E+00
 -18.450  0.4160E+00  0.5707E+00
 -18.440  0.4080E+00  0.5748E+00
 -18.430  0.3995E+00  0.5787E+00
 -18.420  0.3905E+00  0.5827E+00
 -18.410  0.3812E+00  0.5865E+00
 -18.400  0.3718E+00  0.5902E+00
 -18.390  0.3625E+00  0.5938E+00
 -18.380  0.3533E+00  0.5973E+00
 -18.370  0.3444E+00  0.6008E+00
 -18.360  0.3361E+00  0.6041E+00
 -18.350  0.3282E+00  0.6074E+00
 -18.340  0.3211E+00  0.6106E+00
 -18.330  0.3146E+00  0.6138E+00
 -18.320  0.3089E+00  0.6169E+00
 -18.310  0.3040E+00  0.6199E+00
 -18.300  0.2997E+00  0.6229E+00
 -18.290  0.2960E+00  0.6259E+00
 -18.280  0.2929E+00  0.6288E+00
 -18.270  0.2902E+00  0.6317E+00
 -18.260  0.2877E+00  0.6346E+00
 -18.250  0.2855E+00  0.6374E+00
 -18.240  0.2832E+00  0.6403E+00
 -18.230  0.2808E+00  0.6431E+00
 -18.220  0.2781E+00  0.6459E+00
 -18.210  0.2751E+00  0.6486E+00
 -18.200  0.2717E+00  0.6513E+00
 -18.190  0.2678E+00  0.6540E+00
 -18.180  0.2635E+00  0.6566E+00
 -18.170  0.2587E+00  0.6592E+00
 -18.160  0.2536E+00  0.6618E+00
 -18.150  0.2483E+00  0.6642E+00
 -18.140  0.2428E+00  0.6667E+00
 -18.130  0.2374E+00  0.6690E+00
 -18.120  0.2321E+00  0.6714E+00
 -18.110  0.2270E+00  0.6736E+00
 -18.100  0.2225E+00  0.6759E+00
 -18.090  0.2185E+00  0.6780E+00
 -18.080  0.2151E+00  0.6802E+00
 -18.070  0.2124E+00  0.6823E+00
 -18.060  0.2103E+00  0.6844E+00
 -18.050  0.2089E+00  0.6865E+00
 -18.040  0.2080E+00  0.6886E+00
 -18.030  0.2075E+00  0.6907E+00
 -18.020  0.2074E+00  0.6927E+00
 -18.010  0.2073E+00  0.6948E+00
 -18.000  0.2072E+00  0.6969E+00
 -17.990  0.2068E+00  0.6990E+00
 -17.980  0.2061E+00  0.7010E+00
 -17.970  0.2049E+00  0.7031E+00
 -17.960  0.2031E+00  0.7051E+00
 -17.950  0.2007E+00  0.7071E+00
 -17.940  0.1978E+00  0.7091E+00
 -17.930  0.1943E+00  0.7110E+00
 -17.920  0.1903E+00  0.7129E+00
 -17.910  0.1860E+00  0.7148E+00
 -17.900  0.1815E+00  0.7166E+00
 -17.890  0.1770E+00  0.7184E+00
 -17.880  0.1726E+00  0.7201E+00
 -17.870  0.1685E+00  0.7218E+00
 -17.860  0.1648E+00  0.7234E+00
 -17.850  0.1617E+00  0.7250E+00
 -17.840  0.1591E+00  0.7266E+00
 -17.830  0.1571E+00  0.7282E+00
 -17.820  0.1558E+00  0.7298E+00
 -17.810  0.1549E+00  0.7313E+00
 -17.800  0.1545E+00  0.7329E+00
 -17.790  0.1545E+00  0.7344E+00
 -17.780  0.1547E+00  0.7359E+00
 -17.770  0.1549E+00  0.7375E+00
 -17.760  0.1551E+00  0.7390E+00
 -17.750  0.1552E+00  0.7406E+00
 -17.740  0.1550E+00  0.7422E+00
 -17.730  0.1546E+00  0.7437E+00
 -17.720  0.1538E+00  0.7452E+00
 -17.710  0.1528E+00  0.7468E+00
 -17.700  0.1515E+00  0.7483E+00
 -17.690  0.1501E+00  0.7498E+00
 -17.680  0.1486E+00  0.7513E+00
 -17.670  0.1473E+00  0.7527E+00
 -17.660  0.1463E+00  0.7542E+00
 -17.650  0.1457E+00  0.7557E+00
 -17.640  0.1458E+00  0.7571E+00
 -17.630  0.1465E+00  0.7586E+00
 -17.620  0.1482E+00  0.7601E+00
 -17.610  0.1507E+00  0.7616E+00
 -17.600  0.1543E+00  0.7631E+00
 -17.590  0.1589E+00  0.7647E+00
 -17.580  0.1644E+00  0.7663E+00
 -17.570  0.1709E+00  0.7681E+00
 -17.560  0.1781E+00  0.7698E+00
 -17.550  0.1861E+00  0.7717E+00
 -17.540  0.1946E+00  0.7736E+00
 -17.530  0.2035E+00  0.7757E+00
 -17.520  0.2126E+00  0.7778E+00
 -17.510  0.2217E+00  0.7800E+00
 -17.500  0.2308E+00  0.7823E+00
 -17.490  0.2396E+00  0.7847E+00
 -17.480  0.2481E+00  0.7872E+00
 -17.470  0.2561E+00  0.7898E+00
 -17.460  0.2636E+00  0.7924E+00
 -17.450  0.2705E+00  0.7951E+00
 -17.440  0.2769E+00  0.7979E+00
 -17.430  0.2827E+00  0.8007E+00
 -17.420  0.2879E+00  0.8036E+00
 -17.410  0.2927E+00  0.8065E+00
 -17.400  0.2970E+00  0.8095E+00
 -17.390  0.3010E+00  0.8125E+00
 -17.380  0.3045E+00  0.8155E+00
 -17.370  0.3078E+00  0.8186E+00
 -17.360  0.3108E+00  0.8217E+00
 -17.350  0.3135E+00  0.8249E+00
 -17.340  0.3160E+00  0.8280E+00
 -17.330  0.3184E+00  0.8312E+00
 -17.320  0.3205E+00  0.8344E+00
 -17.310  0.3224E+00  0.8376E+00
 -17.300  0.3240E+00  0.8409E+00
 -17.290  0.3255E+00  0.8441E+00
 -17.280  0.3267E+00  0.8474E+00
 -17.270  0.3276E+00  0.8507E+00
 -17.260  0.3284E+00  0.8539E+00
 -17.250  0.3289E+00  0.8572E+00
 -17.240  0.3292E+00  0.8605E+00
 -17.230  0.3294E+00  0.8638E+00
 -17.220  0.3294E+00  0.8671E+00
 -17.210  0.3292E+00  0.8704E+00
 -17.200  0.3290E+00  0.8737E+00
 -17.190  0.3288E+00  0.8770E+00
 -17.180  0.3286E+00  0.8803E+00
 -17.170  0.3283E+00  0.8836E+00
 -17.160  0.3282E+00  0.8868E+00
 -17.150  0.3281E+00  0.8901E+00
 -17.140  0.3280E+00  0.8934E+00
 -17.130  0.3281E+00  0.8967E+00
 -17.120  0.3282E+00  0.9000E+00
 -17.110  0.3284E+00  0.9032E+00
 -17.100  0.3286E+00  0.9065E+00
 -17.090  0.3289E+00  0.9098E+00
 -17.080  0.3293E+00  0.9131E+00
 -17.070  0.3296E+00  0.9164E+00
 -17.060  0.3300E+00  0.9197E+00
 -17.050  0.3303E+00  0.9230E+00
 -17.040  0.3307E+00  0.9263E+00
 -17.030  0.3310E+00  0.9296E+00
 -17.020  0.3314E+00  0.9329E+00
 -17.010  0.3317E+00  0.9363E+00
 -17.000  0.3321E+00  0.9396E+00
 -16.990  0.3326E+00  0.9429E+00
 -16.980  0.3331E+00  0.9462E+00
 -16.970  0.3338E+00  0.9496E+00
 -16.960  0.3346E+00  0.9529E+00
 -16.950  0.3355E+00  0.9563E+00
 -16.940  0.3366E+00  0.9596E+00
 -16.930  0.3379E+00  0.9630E+00
 -16.920  0.3395E+00  0.9664E+00
 -16.910  0.3413E+00  0.9698E+00
 -16.900  0.3434E+00  0.9733E+00
 -16.890  0.3458E+00  0.9767E+00
 -16.880  0.3484E+00  0.9802E+00
 -16.870  0.3514E+00  0.9837E+00
 -16.860  0.3547E+00  0.9873E+00
 -16.850  0.3583E+00  0.9909E+00
 -16.840  0.3623E+00  0.9945E+00
 -16.830  0.3666E+00  0.9981E+00
 -16.820  0.3712E+00  0.1002E+01
 -16.810  0.3761E+00  0.1006E+01
 -16.800  0.3813E+00  0.1009E+01
 -16.790  0.3867E+00  0.1013E+01
 -16.780  0.3924E+00  0.1017E+01
 -16.770  0.3983E+00  0.1021E+01
 -16.760  0.4043E+00  0.1025E+01
 -16.750  0.4104E+00  0.1029E+01
 -16.740  0.4165E+00  0.1034E+01
 -16.730  0.4226E+00  0.1038E+01
 -16.720  0.4285E+00  0.1042E+01
 -16.710  0.4342E+00  0.1046E+01
 -16.700  0.4396E+00  0.1051E+01
 -16.690  0.4446E+00  0.1055E+01
 -16.680  0.4492E+00  0.1060E+01
 -16.670  0.4532E+00  0.1064E+01
 -16.660  0.4567E+00  0.1069E+01
 -16.650  0.4595E+00  0.1073E+01
 -16.640  0.4617E+00  0.1078E+01
 -16.630  0.4632E+00  0.1083E+01
 -16.620  0.4640E+00  0.1087E+01
 -16.610  0.4641E+00  0.1092E+01
 -16.600  0.4637E+00  0.1097E+01
 -16.590  0.4626E+00  0.1101E+01
 -16.580  0.4609E+00  0.1106E+01
 -16.570  0.4588E+00  0.1110E+01
 -16.560  0.4562E+00  0.1115E+01
 -16.550  0.4532E+00  0.1119E+01
 -16.540  0.4499E+00  0.1124E+01
 -16.530  0.4463E+00  0.1128E+01
 -16.520  0.4426E+00  0.1133E+01
 -16.510  0.4387E+00  0.1137E+01
 -16.500  0.4348E+00  0.1142E+01
 -16.490  0.4308E+00  0.1146E+01
 -16.480  0.4269E+00  0.1150E+01
 -16.470  0.4231E+00  0.1154E+01
 -16.460  0.4194E+00  0.1159E+01
 -16.450  0.4159E+00  0.1163E+01
 -16.440  0.4124E+00  0.1167E+01
 -16.430  0.4092E+00  0.1171E+01
 -16.420  0.4061E+00  0.1175E+01
 -16.410  0.4032E+00  0.1179E+01
 -16.400  0.4004E+00  0.1183E+01
 -16.390  0.3978E+00  0.1187E+01
 -16.380  0.3953E+00  0.1191E+01
 -16.370  0.3929E+00  0.1195E+01
 -16.360  0.3907E+00  0.1199E+01
 -16.350  0.3885E+00  0.1203E+01
 -16.340  0.3864E+00  0.1207E+01
 -16.330  0.3843E+00  0.1210E+01
 -16.320  0.3823E+00  0.1214E+01
 -16.310  0.3804E+00  0.1218E+01
 -16.300  0.3786E+00  0.1222E+01
 -16.290  0.3768E+00  0.1226E+01
 -16.280  0.3751E+00  0.1229E+01
 -16.270  0.3735E+00  0.1233E+01
 -16.260  0.3719E+00  0.1237E+01
 -16.250  0.3704E+00  0.1241E+01
 -16.240  0.3690E+00  0.1244E+01
 -16.230  0.3676E+00  0.1248E+01
 -16.220  0.3663E+00  0.1252E+01
 -16.210  0.3649E+00  0.1255E+01
 -16.200  0.3637E+00  0.1259E+01
 -16.190  0.3624E+00  0.1262E+01
 -16.180  0.3611E+00  0.1266E+01
 -16.170  0.3599E+00  0.1270E+01
 -16.160  0.3586E+00  0.1273E+01
 -16.150  0.3574E+00  0.1277E+01
 -16.140  0.3561E+00  0.1280E+01
 -16.130  0.3549E+00  0.1284E+01
 -16.120  0.3537E+00  0.1287E+01
 -16.110  0.3525E+00  0.1291E+01
 -16.100  0.3514E+00  0.1295E+01
 -16.090  0.3502E+00  0.1298E+01
 -16.080  0.3492E+00  0.1302E+01
 -16.070  0.3481E+00  0.1305E+01
 -16.060  0.3471E+00  0.1308E+01
 -16.050  0.3462E+00  0.1312E+01
 -16.040  0.3452E+00  0.1315E+01
 -16.030  0.3443E+00  0.1319E+01
 -16.020  0.3433E+00  0.1322E+01
 -16.010  0.3424E+00  0.1326E+01
 -16.000  0.3414E+00  0.1329E+01
 -15.990  0.3404E+00  0.1332E+01
 -15.980  0.3394E+00  0.1336E+01
 -15.970  0.3384E+00  0.1339E+01
 -15.960  0.3374E+00  0.1343E+01
 -15.950  0.3364E+00  0.1346E+01
 -15.940  0.3355E+00  0.1349E+01
 -15.930  0.3345E+00  0.1353E+01
 -15.920  0.3336E+00  0.1356E+01
 -15.910  0.3327E+00  0.1359E+01
 -15.900  0.3318E+00  0.1363E+01
 -15.890  0.3310E+00  0.1366E+01
 -15.880  0.3302E+00  0.1369E+01
 -15.870  0.3295E+00  0.1373E+01
 -15.860  0.3287E+00  0.1376E+01
 -15.850  0.3280E+00  0.1379E+01
 -15.840  0.3272E+00  0.1382E+01
 -15.830  0.3265E+00  0.1386E+01
 -15.820  0.3257E+00  0.1389E+01
 -15.810  0.3248E+00  0.1392E+01
 -15.800  0.3240E+00  0.1395E+01
 -15.790  0.3231E+00  0.1399E+01
 -15.780  0.3222E+00  0.1402E+01
 -15.770  0.3213E+00  0.1405E+01
 -15.760  0.3204E+00  0.1408E+01
 -15.750  0.3195E+00  0.1412E+01
 -15.740  0.3187E+00  0.1415E+01
 -15.730  0.3179E+00  0.1418E+01
 -15.720  0.3172E+00  0.1421E+01
 -15.710  0.3165E+00  0.1424E+01
 -15.700  0.3159E+00  0.1427E+01
 -15.690  0.3153E+00  0.1431E+01
 -15.680  0.3147E+00  0.1434E+01
 -15.670  0.3141E+00  0.1437E+01
 -15.660  0.3135E+00  0.1440E+01
 -15.650  0.3129E+00  0.1443E+01
 -15.640  0.3122E+00  0.1446E+01
 -15.630  0.3115E+00  0.1449E+01
 -15.620  0.3107E+00  0.1452E+01
 -15.610  0.3099E+00  0.1456E+01
 -15.600  0.3090E+00  0.1459E+01
 -15.590  0.3082E+00  0.1462E+01
 -15.580  0.3073E+00  0.1465E+01
 -15.570  0.3065E+00  0.1468E+01
 -15.560  0.3057E+00  0.1471E+01
 -15.550  0.3049E+00  0.1474E+01
 -15.540  0.3042E+00  0.1477E+01
 -15.530  0.3036E+00  0.1480E+01
 -15.520  0.3030E+00  0.1483E+01
 -15.510  0.3025E+00  0.1486E+01
 -15.500  0.3021E+00  0.1489E+01
 -15.490  0.3016E+00  0.1492E+01
 -15.480  0.3012E+00  0.1495E+01
 -15.470  0.3007E+00  0.1498E+01
 -15.460  0.3002E+00  0.1501E+01
 -15.450  0.2997E+00  0.1504E+01
 -15.440  0.2990E+00  0.1507E+01
 -15.430  0.2983E+00  0.1510E+01
 -15.420  0.2975E+00  0.1513E+01
 -15.410  0.2967E+00  0.1516E+01
 -15.400  0.2958E+00  0.1519E+01
 -15.390  0.2949E+00  0.1522E+01
 -15.380  0.2941E+00  0.1525E+01
 -15.370  0.2932E+00  0.1528E+01
 -15.360  0.2925E+00  0.1531E+01
 -15.350  0.2918E+00  0.1534E+01
 -15.340  0.2912E+00  0.1537E+01
 -15.330  0.2907E+00  0.1539E+01
 -15.320  0.2903E+00  0.1542E+01
 -15.310  0.2900E+00  0.1545E+01
 -15.300  0.2897E+00  0.1548E+01
 -15.290  0.2894E+00  0.1551E+01
 -15.280  0.2891E+00  0.1554E+01
 -15.270  0.2888E+00  0.1557E+01
 -15.260  0.2883E+00  0.1560E+01
 -15.250  0.2878E+00  0.1563E+01
 -15.240  0.2872E+00  0.1565E+01
 -15.230  0.2865E+00  0.1568E+01
 -15.220  0.2857E+00  0.1571E+01
 -15.210  0.2848E+00  0.1574E+01
 -15.200  0.2839E+00  0.1577E+01
 -15.190  0.2830E+00  0.1580E+01
 -15.180  0.2821E+00  0.1583E+01
 -15.170  0.2812E+00  0.1585E+01
 -15.160  0.2805E+00  0.1588E+01
 -15.150  0.2799E+00  0.1591E+01
 -15.140  0.2794E+00  0.1594E+01
 -15.130  0.2790E+00  0.1597E+01
 -15.120  0.2788E+00  0.1599E+01
 -15.110  0.2786E+00  0.1602E+01
 -15.100  0.2785E+00  0.1605E+01
 -15.090  0.2785E+00  0.1608E+01
 -15.080  0.2784E+00  0.1610E+01
 -15.070  0.2783E+00  0.1613E+01
 -15.060  0.2781E+00  0.1616E+01
 -15.050  0.2779E+00  0.1619E+01
 -15.040  0.2776E+00  0.1622E+01
 -15.030  0.2773E+00  0.1624E+01
 -15.020  0.2769E+00  0.1627E+01
 -15.010  0.2766E+00  0.1630E+01
 -15.000  0.2764E+00  0.1633E+01
 -14.990  0.2763E+00  0.1635E+01
 -14.980  0.2763E+00  0.1638E+01
 -14.970  0.2767E+00  0.1641E+01
 -14.960  0.2773E+00  0.1644E+01
 -14.950  0.2783E+00  0.1647E+01
 -14.940  0.2796E+00  0.1649E+01
 -14.930  0.2813E+00  0.1652E+01
 -14.920  0.2834E+00  0.1655E+01
 -14.910  0.2858E+00  0.1658E+01
 -14.900  0.2885E+00  0.1661E+01
 -14.890  0.2915E+00  0.1664E+01
 -14.880  0.2947E+00  0.1667E+01
 -14.870  0.2980E+00  0.1670E+01
 -14.860  0.3014E+00  0.1673E+01
 -14.850  0.3049E+00  0.1676E+01
 -14.840  0.3084E+00  0.1679E+01
 -14.830  0.3119E+00  0.1682E+01
 -14.820  0.3152E+00  0.1685E+01
 -14.810  0.3185E+00  0.1688E+01
 -14.800  0.3216E+00  0.1691E+01
 -14.790  0.3247E+00  0.1695E+01
 -14.780  0.3276E+00  0.1698E+01
 -14.770  0.3304E+00  0.1701E+01
 -14.760  0.3331E+00  0.1705E+01
 -14.750  0.3357E+00  0.1708E+01
 -14.740  0.3382E+00  0.1711E+01
 -14.730  0.3406E+00  0.1715E+01
 -14.720  0.3429E+00  0.1718E+01
 -14.710  0.3451E+00  0.1722E+01
 -14.700  0.3471E+00  0.1725E+01
 -14.690  0.3490E+00  0.1729E+01
 -14.680  0.3508E+00  0.1732E+01
 -14.670  0.3524E+00  0.1736E+01
 -14.660  0.3538E+00  0.1739E+01
 -14.650  0.3550E+00  0.1743E+01
 -14.640  0.3561E+00  0.1746E+01
 -14.630  0.3569E+00  0.1750E+01
 -14.620  0.3575E+00  0.1753E+01
 -14.610  0.3579E+00  0.1757E+01
 -14.600  0.3582E+00  0.1760E+01
 -14.590  0.3583E+00  0.1764E+01
 -14.580  0.3584E+00  0.1768E+01
 -14.570  0.3583E+00  0.1771E+01
 -14.560  0.3582E+00  0.1775E+01
 -14.550  0.3581E+00  0.1778E+01
 -14.540  0.3580E+00  0.1782E+01
 -14.530  0.3580E+00  0.1786E+01
 -14.520  0.3580E+00  0.1789E+01
 -14.510  0.3580E+00  0.1793E+01
 -14.500  0.3581E+00  0.1796E+01
 -14.490  0.3583E+00  0.1800E+01
 -14.480  0.3586E+00  0.1803E+01
 -14.470  0.3589E+00  0.1807E+01
 -14.460  0.3593E+00  0.1811E+01
 -14.450  0.3597E+00  0.1814E+01
 -14.440  0.3603E+00  0.1818E+01
 -14.430  0.3608E+00  0.1821E+01
 -14.420  0.3614E+00  0.1825E+01
 -14.410  0.3620E+00  0.1829E+01
 -14.400  0.3626E+00  0.1832E+01
 -14.390  0.3631E+00  0.1836E+01
 -14.380  0.3636E+00  0.1840E+01
 -14.370  0.3640E+00  0.1843E+01
 -14.360  0.3644E+00  0.1847E+01
 -14.350  0.3646E+00  0.1851E+01
 -14.340  0.3646E+00  0.1854E+01
 -14.330  0.3645E+00  0.1858E+01
 -14.320  0.3643E+00  0.1861E+01
 -14.310  0.3639E+00  0.1865E+01
 -14.300  0.3634E+00  0.1869E+01
 -14.290  0.3629E+00  0.1872E+01
 -14.280  0.3623E+00  0.1876E+01
 -14.270  0.3617E+00  0.1880E+01
 -14.260  0.3613E+00  0.1883E+01
 -14.250  0.3610E+00  0.1887E+01
 -14.240  0.3609E+00  0.1890E+01
 -14.230  0.3610E+00  0.1894E+01
 -14.220  0.3614E+00  0.1898E+01
 -14.210  0.3620E+00  0.1901E+01
 -14.200  0.3629E+00  0.1905E+01
 -14.190  0.3641E+00  0.1909E+01
 -14.180  0.3653E+00  0.1912E+01
 -14.170  0.3667E+00  0.1916E+01
 -14.160  0.3681E+00  0.1920E+01
 -14.150  0.3695E+00  0.1923E+01
 -14.140  0.3706E+00  0.1927E+01
 -14.130  0.3716E+00  0.1931E+01
 -14.120  0.3723E+00  0.1934E+01
 -14.110  0.3726E+00  0.1938E+01
 -14.100  0.3725E+00  0.1942E+01
 -14.090  0.3721E+00  0.1946E+01
 -14.080  0.3714E+00  0.1949E+01
 -14.070  0.3704E+00  0.1953E+01
 -14.060  0.3693E+00  0.1957E+01
 -14.050  0.3680E+00  0.1960E+01
 -14.040  0.3667E+00  0.1964E+01
 -14.030  0.3654E+00  0.1968E+01
 -14.020  0.3644E+00  0.1971E+01
 -14.010  0.3637E+00  0.1975E+01
 -14.000  0.3633E+00  0.1979E+01
 -13.990  0.3633E+00  0.1982E+01
 -13.980  0.3637E+00  0.1986E+01
 -13.970  0.3645E+00  0.1989E+01
 -13.960  0.3656E+00  0.1993E+01
 -13.950  0.3672E+00  0.1997E+01
 -13.940  0.3689E+00  0.2001E+01
 -13.930  0.3708E+00  0.2004E+01
 -13.920  0.3728E+00  0.2008E+01
 -13.910  0.3747E+00  0.2012E+01
 -13.900  0.3765E+00  0.2015E+01
 -13.890  0.3780E+00  0.2019E+01
 -13.880  0.3792E+00  0.2023E+01
 -13.870  0.3800E+00  0.2027E+01
 -13.860  0.3803E+00  0.2031E+01
 -13.850  0.3803E+00  0.2034E+01
 -13.840  0.3797E+00  0.2038E+01
 -13.830  0.3788E+00  0.2042E+01
 -13.820  0.3776E+00  0.2046E+01
 -13.810  0.3761E+00  0.2050E+01
 -13.800  0.3746E+00  0.2053E+01
 -13.790  0.3729E+00  0.2057E+01
 -13.780  0.3714E+00  0.2061E+01
 -13.770  0.3701E+00  0.2064E+01
 -13.760  0.3691E+00  0.2068E+01
 -13.750  0.3684E+00  0.2072E+01
 -13.740  0.3682E+00  0.2076E+01
 -13.730  0.3684E+00  0.2079E+01
 -13.720  0.3690E+00  0.2083E+01
 -13.710  0.3701E+00  0.2087E+01
 -13.700  0.3716E+00  0.2090E+01
 -13.690  0.3733E+00  0.2094E+01
 -13.680  0.3753E+00  0.2098E+01
 -13.670  0.3773E+00  0.2102E+01
 -13.660  0.3793E+00  0.2105E+01
 -13.650  0.3812E+00  0.2109E+01
 -13.640  0.3830E+00  0.2113E+01
 -13.630  0.3844E+00  0.2117E+01
 -13.620  0.3855E+00  0.2121E+01
 -13.610  0.3862E+00  0.2125E+01
 -13.600  0.3866E+00  0.2128E+01
 -13.590  0.3865E+00  0.2132E+01
 -13.580  0.3862E+00  0.2136E+01
 -13.570  0.3855E+00  0.2140E+01
 -13.560  0.3847E+00  0.2144E+01
 -13.550  0.3837E+00  0.2148E+01
 -13.540  0.3826E+00  0.2152E+01
 -13.530  0.3815E+00  0.2155E+01
 -13.520  0.3804E+00  0.2159E+01
 -13.510  0.3795E+00  0.2163E+01
 -13.500  0.3787E+00  0.2167E+01
 -13.490  0.3781E+00  0.2170E+01
 -13.480  0.3777E+00  0.2174E+01
 -13.470  0.3775E+00  0.2178E+01
 -13.460  0.3776E+00  0.2182E+01
 -13.450  0.3779E+00  0.2186E+01
 -13.440  0.3784E+00  0.2189E+01
 -13.430  0.3792E+00  0.2193E+01
 -13.420  0.3801E+00  0.2197E+01
 -13.410  0.3813E+00  0.2201E+01
 -13.400  0.3826E+00  0.2205E+01
 -13.390  0.3841E+00  0.2208E+01
 -13.380  0.3856E+00  0.2212E+01
 -13.370  0.3872E+00  0.2216E+01
 -13.360  0.3889E+00  0.2220E+01
 -13.350  0.3905E+00  0.2224E+01
 -13.340  0.3919E+00  0.2228E+01
 -13.330  0.3932E+00  0.2232E+01
 -13.320  0.3943E+00  0.2236E+01
 -13.310  0.3950E+00  0.2240E+01
 -13.300  0.3954E+00  0.2244E+01
 -13.290  0.3955E+00  0.2248E+01
 -13.280  0.3951E+00  0.2252E+01
 -13.270  0.3945E+00  0.2256E+01
 -13.260  0.3935E+00  0.2259E+01
 -13.250  0.3922E+00  0.2263E+01
 -13.240  0.3908E+00  0.2267E+01
 -13.230  0.3893E+00  0.2271E+01
 -13.220  0.3879E+00  0.2275E+01
 -13.210  0.3866E+00  0.2279E+01
 -13.200  0.3855E+00  0.2283E+01
 -13.190  0.3848E+00  0.2287E+01
 -13.180  0.3845E+00  0.2290E+01
 -13.170  0.3847E+00  0.2294E+01
 -13.160  0.3853E+00  0.2298E+01
 -13.150  0.3864E+00  0.2302E+01
 -13.140  0.3879E+00  0.2306E+01
 -13.130  0.3897E+00  0.2310E+01
 -13.120  0.3917E+00  0.2314E+01
 -13.110  0.3938E+00  0.2318E+01
 -13.100  0.3960E+00  0.2322E+01
 -13.090  0.3980E+00  0.2326E+01
 -13.080  0.3999E+00  0.2330E+01
 -13.070  0.4015E+00  0.2334E+01
 -13.060  0.4027E+00  0.2338E+01
 -13.050  0.4036E+00  0.2342E+01
 -13.040  0.4041E+00  0.2346E+01
 -13.030  0.4042E+00  0.2350E+01
 -13.020  0.4040E+00  0.2354E+01
 -13.010  0.4035E+00  0.2358E+01
 -13.000  0.4029E+00  0.2362E+01
 -12.990  0.4021E+00  0.2366E+01
 -12.980  0.4013E+00  0.2370E+01
 -12.970  0.4005E+00  0.2374E+01
 -12.960  0.3997E+00  0.2378E+01
 -12.950  0.3991E+00  0.2382E+01
 -12.940  0.3985E+00  0.2386E+01
 -12.930  0.3982E+00  0.2390E+01
 -12.920  0.3980E+00  0.2394E+01
 -12.910  0.3979E+00  0.2398E+01
 -12.900  0.3981E+00  0.2402E+01
 -12.890  0.3983E+00  0.2406E+01
 -12.880  0.3987E+00  0.2410E+01
 -12.870  0.3993E+00  0.2414E+01
 -12.860  0.4000E+00  0.2418E+01
 -12.850  0.4009E+00  0.2422E+01
 -12.840  0.4019E+00  0.2426E+01
 -12.830  0.4031E+00  0.2430E+01
 -12.820  0.4044E+00  0.2434E+01
 -12.810  0.4058E+00  0.2438E+01
 -12.800  0.4073E+00  0.2442E+01
 -12.790  0.4089E+00  0.2446E+01
 -12.780  0.4105E+00  0.2450E+01
 -12.770  0.4121E+00  0.2454E+01
 -12.760  0.4135E+00  0.2458E+01
 -12.750  0.4147E+00  0.2463E+01
 -12.740  0.4157E+00  0.2467E+01
 -12.730  0.4163E+00  0.2471E+01
 -12.720  0.4166E+00  0.2475E+01
 -12.710  0.4165E+00  0.2479E+01
 -12.700  0.4161E+00  0.2483E+01
 -12.690  0.4154E+00  0.2488E+01
 -12.680  0.4143E+00  0.2492E+01
 -12.670  0.4131E+00  0.2496E+01
 -12.660  0.4119E+00  0.2500E+01
 -12.650  0.4106E+00  0.2504E+01
 -12.640  0.4095E+00  0.2508E+01
 -12.630  0.4087E+00  0.2512E+01
 -12.620  0.4083E+00  0.2516E+01
 -12.610  0.4082E+00  0.2520E+01
 -12.600  0.4087E+00  0.2525E+01
 -12.590  0.4096E+00  0.2529E+01
 -12.580  0.4110E+00  0.2533E+01
 -12.570  0.4128E+00  0.2537E+01
 -12.560  0.4149E+00  0.2541E+01
 -12.550  0.4172E+00  0.2545E+01
 -12.540  0.4195E+00  0.2549E+01
 -12.530  0.4217E+00  0.2554E+01
 -12.520  0.4238E+00  0.2558E+01
 -12.510  0.4256E+00  0.2562E+01
 -12.500  0.4270E+00  0.2566E+01
 -12.490  0.4280E+00  0.2571E+01
 -12.480  0.4285E+00  0.2575E+01
 -12.470  0.4286E+00  0.2579E+01
 -12.460  0.4284E+00  0.2583E+01
 -12.450  0.4278E+00  0.2588E+01
 -12.440  0.4271E+00  0.2592E+01
 -12.430  0.4262E+00  0.2596E+01
 -12.420  0.4254E+00  0.2601E+01
 -12.410  0.4246E+00  0.2605E+01
 -12.400  0.4241E+00  0.2609E+01
 -12.390  0.4239E+00  0.2613E+01
 -12.380  0.4239E+00  0.2618E+01
 -12.370  0.4243E+00  0.2622E+01
 -12.360  0.4250E+00  0.2626E+01
 -12.350  0.4260E+00  0.2630E+01
 -12.340  0.4271E+00  0.2635E+01
 -12.330  0.4285E+00  0.2639E+01
 -12.320  0.4299E+00  0.2643E+01
 -12.310  0.4313E+00  0.2647E+01
 -12.300  0.4326E+00  0.2652E+01
 -12.290  0.4338E+00  0.2656E+01
 -12.280  0.4349E+00  0.2660E+01
 -12.270  0.4357E+00  0.2665E+01
 -12.260  0.4365E+00  0.2669E+01
 -12.250  0.4371E+00  0.2674E+01
 -12.240  0.4376E+00  0.2678E+01
 -12.230  0.4380E+00  0.2682E+01
 -12.220  0.4384E+00  0.2687E+01
 -12.210  0.4388E+00  0.2691E+01
 -12.200  0.4393E+00  0.2695E+01
 -12.190  0.4398E+00  0.2700E+01
 -12.180  0.4405E+00  0.2704E+01
 -12.170  0.4413E+00  0.2709E+01
 -12.160  0.4422E+00  0.2713E+01
 -12.150  0.4431E+00  0.2718E+01
 -12.140  0.4442E+00  0.2722E+01
 -12.130  0.4452E+00  0.2726E+01
 -12.120  0.4463E+00  0.2731E+01
 -12.110  0.4474E+00  0.2735E+01
 -12.100  0.4486E+00  0.2740E+01
 -12.090  0.4498E+00  0.2744E+01
 -12.080  0.4511E+00  0.2749E+01
 -12.070  0.4526E+00  0.2753E+01
 -12.060  0.4543E+00  0.2758E+01
 -12.050  0.4564E+00  0.2762E+01
 -12.040  0.4588E+00  0.2767E+01
 -12.030  0.4617E+00  0.2772E+01
 -12.020  0.4652E+00  0.2776E+01
 -12.010  0.4693E+00  0.2781E+01
 -12.000  0.4741E+00  0.2786E+01
 -11.990  0.4797E+00  0.2791E+01
 -11.980  0.4859E+00  0.2795E+01
 -11.970  0.4929E+00  0.2800E+01
 -11.960  0.5005E+00  0.2805E+01
 -11.950  0.5088E+00  0.2810E+01
 -11.940  0.5176E+00  0.2816E+01
 -11.930  0.5270E+00  0.2821E+01
 -11.920  0.5368E+00  0.2826E+01
 -11.910  0.5470E+00  0.2832E+01
 -11.900  0.5576E+00  0.2837E+01
 -11.890  0.5683E+00  0.2843E+01
 -11.880  0.5793E+00  0.2849E+01
 -11.870  0.5903E+00  0.2855E+01
 -11.860  0.6014E+00  0.2861E+01
 -11.850  0.6126E+00  0.2867E+01
 -11.840  0.6236E+00  0.2873E+01
 -11.830  0.6345E+00  0.2879E+01
 -11.820  0.6452E+00  0.2886E+01
 -11.810  0.6556E+00  0.2892E+01
 -11.800  0.6656E+00  0.2899E+01
 -11.790  0.6752E+00  0.2906E+01
 -11.780  0.6842E+00  0.2913E+01
 -11.770  0.6927E+00  0.2920E+01
 -11.760  0.7004E+00  0.2927E+01
 -11.750  0.7074E+00  0.2934E+01
 -11.740  0.7135E+00  0.2941E+01
 -11.730  0.7189E+00  0.2948E+01
 -11.720  0.7235E+00  0.2955E+01
 -11.710  0.7273E+00  0.2963E+01
 -11.700  0.7305E+00  0.2970E+01
 -11.690  0.7330E+00  0.2977E+01
 -11.680  0.7350E+00  0.2984E+01
 -11.670  0.7366E+00  0.2992E+01
 -11.660  0.7380E+00  0.2999E+01
 -11.650  0.7392E+00  0.3007E+01
 -11.640  0.7404E+00  0.3014E+01
 -11.630  0.7417E+00  0.3021E+01
 -11.620  0.7432E+00  0.3029E+01
 -11.610  0.7449E+00  0.3036E+01
 -11.600  0.7469E+00  0.3044E+01
 -11.590  0.7492E+00  0.3051E+01
 -11.580  0.7517E+00  0.3059E+01
 -11.570  0.7543E+00  0.3066E+01
 -11.560  0.7571E+00  0.3074E+01
 -11.550  0.7598E+00  0.3082E+01
 -11.540  0.7625E+00  0.3089E+01
 -11.530  0.7649E+00  0.3097E+01
 -11.520  0.7671E+00  0.3104E+01
 -11.510  0.7690E+00  0.3112E+01
 -11.500  0.7705E+00  0.3120E+01
 -11.490  0.7717E+00  0.3128E+01
 -11.480  0.7725E+00  0.3135E+01
 -11.470  0.7731E+00  0.3143E+01
 -11.460  0.7736E+00  0.3151E+01
 -11.450  0.7739E+00  0.3159E+01
 -11.440  0.7743E+00  0.3166E+01
 -11.430  0.7747E+00  0.3174E+01
 -11.420  0.7754E+00  0.3182E+01
 -11.410  0.7763E+00  0.3190E+01
 -11.400  0.7775E+00  0.3197E+01
 -11.390  0.7791E+00  0.3205E+01
 -11.380  0.7810E+00  0.3213E+01
 -11.370  0.7832E+00  0.3221E+01
 -11.360  0.7856E+00  0.3229E+01
 -11.350  0.7883E+00  0.3236E+01
 -11.340  0.7911E+00  0.3244E+01
 -11.330  0.7940E+00  0.3252E+01
 -11.320  0.7968E+00  0.3260E+01
 -11.310  0.7996E+00  0.3268E+01
 -11.300  0.8023E+00  0.3276E+01
 -11.290  0.8049E+00  0.3284E+01
 -11.280  0.8074E+00  0.3292E+01
 -11.270  0.8098E+00  0.3301E+01
 -11.260  0.8120E+00  0.3309E+01
 -11.250  0.8142E+00  0.3317E+01
 -11.240  0.8164E+00  0.3325E+01
 -11.230  0.8186E+00  0.3333E+01
 -11.220  0.8208E+00  0.3341E+01
 -11.210  0.8231E+00  0.3350E+01
 -11.200  0.8254E+00  0.3358E+01
 -11.190  0.8279E+00  0.3366E+01
 -11.180  0.8304E+00  0.3374E+01
 -11.170  0.8330E+00  0.3383E+01
 -11.160  0.8356E+00  0.3391E+01
 -11.150  0.8383E+00  0.3399E+01
 -11.140  0.8410E+00  0.3408E+01
 -11.130  0.8437E+00  0.3416E+01
 -11.120  0.8464E+00  0.3425E+01
 -11.110  0.8491E+00  0.3433E+01
 -11.100  0.8519E+00  0.3442E+01
 -11.090  0.8548E+00  0.3450E+01
 -11.080  0.8578E+00  0.3459E+01
 -11.070  0.8611E+00  0.3468E+01
 -11.060  0.8646E+00  0.3476E+01
 -11.050  0.8685E+00  0.3485E+01
 -11.040  0.8727E+00  0.3494E+01
 -11.030  0.8773E+00  0.3502E+01
 -11.020  0.8823E+00  0.3511E+01
 -11.010  0.8877E+00  0.3520E+01
 -11.000  0.8935E+00  0.3529E+01
 -10.990  0.8997E+00  0.3538E+01
 -10.980  0.9062E+00  0.3547E+01
 -10.970  0.9129E+00  0.3556E+01
 -10.960  0.9198E+00  0.3565E+01
 -10.950  0.9269E+00  0.3575E+01
 -10.940  0.9340E+00  0.3584E+01