2
Frame 24: Geometry 25, Energy: -0.04374 Ha
Og -2.224913666814628e-16 1.284554497762364e-16 4.264751688426009e-16
Og 2.004024076080796 -1.157023839787737 -3.841346822964613
VEC1 4.008048152161591 1.192620820734027e-17 -2.74658042821269e-17
VEC2 -2.004024076080796 3.471071519363216 1.402013089279825e-17
VEC3 -4.748760553451848e-17 5.734363639181509e-19 7.682693645929231
