

 Parallel Execution: Process Information
 ==============================================================================
 Rank   Node Name                              NodeID   MyNodeRank  NodeMaster
    0   lxir124                                   0          0          0
    1   lxir124                                   0          1         -1
    2   lxir124                                   0          2         -1
    3   lxir124                                   0          3         -1
    4   lxir124                                   0          4         -1
    5   lxir124                                   0          5         -1
    6   lxir124                                   0          6         -1
    7   lxir124                                   0          7         -1
    8   lxir124                                   0          8         -1
    9   lxir124                                   0          9         -1
   10   lxir124                                   0         10         -1
   11   lxir124                                   0         11         -1
   12   lxir124                                   0         12         -1
   13   lxir124                                   0         13         -1
   14   lxir124                                   0         14         -1
   15   lxir124                                   0         15         -1
   16   lxir124                                   0         16         -1
   17   lxir124                                   0         17         -1
   18   lxir124                                   0         18         -1
   19   lxir124                                   0         19         -1
 ==============================================================================


May use up to 122942MB of RAM as shared memory on node 0

 *******************************************************************************
 *                                                                             *
 *  --------------------------------                                           *
 *   Amsterdam Modeling Suite (AMS)              2024.101                      *
 *  --------------------------------                                           *
 *                                               r121099 2024-04-19            *
 *                                                                             *
 *                                                                             *
 *                              =================                              *
 *                              |               |                              *
 *                              |     A M S     |                              *
 *                              |               |                              *
 *                              =================                              *
 *                                                                             *
 *                                                                             *
 *   Online information and documentation:  https://www.scm.com/support/       *
 *   E-mail:  support@scm.com   info@scm.com                                   *
 *                                                                             *
 *   Scientific publications using AMS results must be properly referenced     *
 *   See the User Manuals (or the web site) for recommended citations          *
 *   The terms and conditions of the End User License Agreement apply to       *
 *   the use of AMS, https://www.scm.com/license-terms/                        *
 *                                                                             *
 **********************  x86_64_linux_intel / intelmpi  ************************
 
 Licensed to: Dr. Valeria Pershina / GSI Helmholtzzentrum f?r Schwerionenforschung GmbH / Darmstadt / Germany 2024-05-07 16:20:14
 SCM User ID: u15059
  
 AMS 2024.101  RunTime: May16-2024 16:08:05  ShM Nodes: 1  Procs: 20

 AMS jobname: ams
 AMS jobid  : 625587278

 Start   directory: /data.local1/milias/work/open-collection/theoretical_chemistry/software/ams/runs/Og_dispersion_corrections/tmp.milias.27049.0.noindex/
 Results directory: /data.local1/milias/work/open-collection/theoretical_chemistry/software/ams/runs/Og_dispersion_corrections/Og2_hcp.sozora_coll_gnuc_revpbe-d4_tzp_sc.results/
 Scratch directory: /data.local1/milias/scratch/amstmp_ams_kid0.625587278/


 Communication costs MPI_COMM_WORLD:      1.965 usec per message,   0.0086 usec per 8-byte item
 Communication costs for intra-node:      1.961 usec per message,   0.0085 usec per 8-byte item

 RNG seed: -833826039 -860315488 1964222691 838386360 2096324586 -237081708 85708665 -259455843

       ****************************
       * SINGLE POINT CALCULATION *
       ****************************
 
--------
Geometry
--------
Formula: Og2
Atoms
  Index Symbol   x (angstrom)   y (angstrom)   z (angstrom)
      1     Og    -0.00000000     0.00000000     0.00000000
      2     Og     2.00402408    -1.15702384    -3.84134682
 
Lattice vectors (angstrom)
      1     4.00804815     0.00000000     0.00000000
      2    -2.00402408     3.47107152     0.00000000
      3     0.00000000     0.00000000     7.68269365
 
Unit cell volume (angstrom^3)       106.88334
 
Total System Charge             0.00000
 



                     **************************************************************************
                     *  BAND 2024.101  RunTime: May16-2024 16:08:05  ShM Nodes: 1  Procs: 20  *
                     **************************************************************************
  

-----------------
Band Engine Input
-----------------

Basis
Type TZP
Core Small
End
NuclearModel Gaussian
Relativity
Level Spin-Orbit
End
XC
SpinOrbitMagnetization CollinearZ
GGA revPBE
DISPERSION GRIMME4
End

 Using the following basis set files:
 
 Og             : /data.local1/milias/software/ams/intelmpi/ams2024.101/atomicdata/Band/TZP/Og.5d
 Needs range separation F F
 Range separation string: 



 =====================
 C O N F I N E M E N T
 =====================
  
 Basis functions confinement radius        10.000
 Width                                      1.000



 ===============================
 M O D E L   P A R A M E T E R S
 ===============================
  
 DENSITY FUNCTIONAL POTENTIAL (scf)
    LDA:                               PW92                                    == Not Default ==
    Gradient Corrections:              PBEc revPBEx                            == Not Default ==
 DENSITY FUNCTIONAL ENERGY (post-scf)
    Gradient Corrections:              Becke88 Perdew86 PW91x PW91c EV93x PW...== Not Default ==

 SPIN  (restricted / unrestr.)
    Molecule:                          Collinear (Z)

 OTHER ASPECTS
    Relativistic Corrections:          Spin-Orbit (ZORA,APA)                   == Not Default ==

    Nuclear Charge Density Model:      Gaussian Charge Distributions            *** SPECIAL ***



 ========================
 S. C. F.   O P T I O N S
 ========================
  

 * DIIS settings info for DIRAC   *
    Cond              0.1E+07
    CLarge          20.00
    CHuge           50.00
    DiMix            1.00
    IopPly              1
    NCyDmp              5
    IPrint              0
    Adaptable           F
    Method         diis                
    Dimix Decay fac  1.00

 SCF Multi Stepper from: DFTB/default2023.inc


    Mix            0.0750
    Degenerate          F
    Edegen          1.0E-04
    SCFRTX           9.90
    Convrg          1.4E-06
    Ncyclx            300
 getinp: use Shared Memory T




                             **  R A D I A L   F U N C T I O N S  **




                             ---------------------
                                   T Y P E   1
                             ---------------------

 RADIAL POINTS                                         3000




 ............................ D I R A C ................................

 NUCLEAR CHARGE                               118.0000               **>  Og  <**
 (POINT NUCLEUS)
 VALENCE CHARGE                                40.0000
 NET CHARGE                                     0.0000

 VALENCE ORBITALS INCLUDED IN THE CRYSTAL BASIS
 NR. OF (RADIAL) CORE FUNCTIONS                21
 Nuclear radius (bohr):    1.16E-04
 Radial grid       nr of points               3000
                   range                      0.10E-05     0.10E+03
 Radius of nucleus  1.158E-04
  
  ** SCF-FUNCTIONAL INFO **
    ZORA
    DOUBLE GROUP
  
 Self consistent error   0.28E-08


  Orbital    Q         E(a.u.)     E(eV)           <R>
 -------------------------------------------------------------------
  1S 1/2     2.00 -10632.598325    -289327.7215   0.007
  2S 1/2     2.00  -1805.126274     -49119.9852   0.035
  2P 1/2     2.00  -1772.366173     -48228.5375   0.027
  2P 3/2     4.00  -1175.337987     -31982.5739   0.041
  3S 1/2     2.00   -471.106936     -12819.4720   0.097
  3P 1/2     2.00   -452.567289     -12314.9825   0.089
  3P 3/2     4.00   -316.022429      -8599.4078   0.114
  3D 3/2     4.00   -284.978116      -7754.6491   0.097
  3D 5/2     6.00   -263.469220      -7169.3623   0.103
  4S 1/2     2.00   -136.909500      -3725.4970   0.208
  4P 1/2     2.00   -127.384139      -3466.2988   0.203
  4P 3/2     4.00    -88.587119      -2410.5782   0.249
  4D 3/2     4.00    -73.420946      -1997.8856   0.240
  4D 5/2     6.00    -67.567692      -1838.6105   0.252
  5S 1/2     2.00    -37.618974      -1023.6644   0.408
  5P 1/2     2.00    -33.184744       -903.0028   0.412
  5P 3/2     4.00    -21.736823       -591.4890   0.500
  4F 5/2     6.00    -47.761252      -1299.6498   0.231
  4F 7/2     8.00    -46.009933      -1251.9940   0.236
  5D 3/2     4.00    -15.191439       -413.3801   0.522
  5D 5/2     6.00    -13.640735       -371.1833   0.547
  6S 1/2     2.00     -8.013164       -218.0493   0.807
  6P 1/2     2.00     -6.274868       -170.7478   0.846
  6P 3/2     4.00     -3.548310        -96.5544   1.056
  5F 5/2     6.00     -5.784240       -157.3972   0.606
  5F 7/2     8.00     -5.423694       -147.5862   0.620
  6D 3/2     4.00     -1.438686        -39.1486   1.263
  6D 5/2     6.00     -1.183570        -32.2066   1.344
  7S 1/2     2.00     -0.988880        -26.9088   1.809
  7P 1/2     2.00     -0.534540        -14.5456   2.092
  7P 3/2     4.00     -0.199623         -5.4320   2.973



 NR. OF RADIAL VALENCE ORBITALS                          27
 NR. OF RADIAL CORE ORBITALS                             21
 NR. OF RADIAL FIT FUNCTIONS                              0



 ======================================================
 R A N G E S    F O R    A T O M I C    O R B I T A L S
 ======================================================
  
   --------------------------------------------------------------------------------
                            valence            core valence kinetic    core kinetic
   --------------------------------------------------------------------------------

             Cutoff       1.000E-06       1.000E-06       1.000E-06       1.000E-06
   --------------------------------------------------------------------------------
 
   --------------------------------------------------------------------------------
               Type         valence            core valence kinetic    core kinetic
   --------------------------------------------------------------------------------
                 Og           15.65            3.45           15.84            3.35
   --------------------------------------------------------------------------------
 



 ====================
 R U N    C O N F I G
 ====================
  
 
 Use Symmetry  .  .  .  .  .  .  .  .  .  .  .  .  .  .  .  .  T
 Calculate gradient of basis  .  .  .  .  .  .  .  .  .  .  .  F
 Calculate sec. der. of basis .  .  .  .  .  .  .  .  .  .  .  F
 Calculate operator T working on basis .  .  .  .  .  .  .  .  T
 Calculate dk-basis  .  .  .  .  .  .  .  .  .  .  .  .  .  .  F
 Calculate gradient of fit .  .  .  .  .  .  .  .  .  .  .  .  T
 Calculate sec. der. of fit.  .  .  .  .  .  .  .  .  .  .  .  T
 Calculate gradient of fit pot.  .  .  .  .  .  .  .  .  .  .  F
 Kin. energy via grad.  .  .  .  .  .  .  .  .  .  .  .  .  .  F
 Turnover rule for xc.  .  .  .  .  .  .  .  .  .  .  .  .  .  F
 Calculate gradient of energy .  .  .  .  .  .  .  .  .  .  .  F
 Calculate analytical strain derivatives  .  .  .  .  .  .  .  F
 Calculate kin. energy density.  .  .  .  .  .  .  .  .  .  .  F
 Calculate nuc. grad of kin. energy density  .  .  .  .  .  .  F
 Calculate der. of density .  .  .  .  .  .  .  .  .  .  .  .  T
 Calculate second der. of density.  .  .  .  .  .  .  .  .  .  T
 Calculate nuc. grad. of density .  .  .  .  .  .  .  .  .  .  F
 Calculate nuc. grad. of grad. density .  .  .  .  .  .  .  .  F
 Exact rho during SCF.  .  .  .  .  .  .  .  .  .  .  .  .  .  T
 Exact grad. rho during SCF.  .  .  .  .  .  .  .  .  .  .  .  F
 Exact grad. rho post SCF  .  .  .  .  .  .  .  .  .  .  .  .  F
 Store history of dens. matrix.  .  .  .  .  .  .  .  .  .  .  T
 Store original Bloch functions  .  .  .  .  .  .  .  .  .  .  F
 Direct fit .  .  .  .  .  .  .  .  .  .  .  .  .  .  .  .  .  F
 Direct basis  .  .  .  .  .  .  .  .  .  .  .  .  .  .  .  .  T
 STO based fitting.  .  .  .  .  .  .  .  .  .  .  .  .  .  .  F
 Zlm fitting.  .  .  .  .  .  .  .  .  .  .  .  .  .  .  .  .  T
 Calculate fragment energy in mol. grid.  .  .  .  .  .  .  .  T
 Map atoms to unit cell .  .  .  .  .  .  .  .  .  .  .  .  .  T
 Print output for radial.  .  .  .  .  .  .  .  .  .  .  .  .  T
 Calculate DOS .  .  .  .  .  .  .  .  .  .  .  .  .  .  .  .  T
 Calculate population analysis.  .  .  .  .  .  .  .  .  .  .  T
 Calculate band structure  .  .  .  .  .  .  .  .  .  .  .  .  F
 Calculate EFG .  .  .  .  .  .  .  .  .  .  .  .  .  .  .  .  F
 Calculate properties.  .  .  .  .  .  .  .  .  .  .  .  .  .  T
 Calculate kinetic energy  .  .  .  .  .  .  .  .  .  .  .  .  T
 Save file tape10 .  .  .  .  .  .  .  .  .  .  .  .  .  .  .  F
 Save file Points .  .  .  .  .  .  .  .  .  .  .  .  .  .  .  F



 ==================================================
 G E O M E T R Y    I N    X - Y - Z    F O R M A T
 ==================================================
  
 Og     -1.002012038     0.578511920     1.920673411
 Og      1.002012038    -0.578511920    -1.920673411
 VEC1     4.008048152     0.000000000     0.000000000
 VEC2    -2.004024076     3.471071519     0.000000000
 VEC3     0.000000000     0.000000000     7.682693646

   Total nr. of atoms:          2





                       3 - D I M E N S I O N A L   C R Y S T A L




   REAL SPACE LATTICE VECTORS                         LENGTH
   --------------------------                         ------
   1)   7.5741133019   0.0000000000   0.0000000000     7.574
   2)  -3.7870566509   6.5593745306   0.0000000000     7.574
   3)   0.0000000000   0.0000000000  14.5181868902    14.518

   ----------------------------------------
   Angles between lattice vectors
   ----------------------------------------

     pair          angle

     2 1           120.000000
     3 1            90.000000
     3 2            90.000000
 

   Volume of unit cell (a.u.):               721.28
   Volume of unit cell (Angstrom**3):        106.88



   K-SPACE LATTICE VECTORS                            LENGTH
   -----------------------                            ------
   1)   0.8295605118   0.4789469848   0.0000000000     0.958
   2)   0.0000000000   0.9578939696   0.0000000000     0.958
   3)   0.0000000000   0.0000000000   0.4327803020     0.433


 INTER-ATOMIC DISTANCES (REDUCED)
 --------------------------------
   2)
    8.4745


 SMALLEST INTERATOMIC DISTANCE =      8.474481404866
 BeckeGrid: periodic partition function using cells up to order           17



 ===============================
 K - S P A C E   S A M P L I N G
 ===============================
  
 Automatic Regular k-space grid for quality: NORMAL
 
    lattice-vec. size(real space)    size(k-space)   #points   delta-k
               1             6.56             0.96         5     0.239
               2             6.56             0.96         5     0.239
               3            14.52             0.43         3     0.216
 
             Total nr. of unique k-points 12




 =========
 C E L L S
 =========
  

   Nr. of cells for valence functions:        189



 ===========================
 L I N E A R   S C A L I N G
 ===========================
  
 Neglecting functions
              Valence  1.00E-06
                 Core  1.00E-06
                  Fit  0.00E+00
            Multipole  1.00E-08
   Screening function  3.16E-05



 =========================================
 N U M E R I C A L   I N T E G R A T I O N
 =========================================
  
 Becke grid quality: NORMAL         
  
 Lebedev angular grid order:             min:  11 max:  31
 Nr. of radial points:                   min: 121 max: 121

 Total nr. of points                                 122880
 Block length                                           128
 Nr. of unique blocks                                    40
 Total nr. of blocks                                    960

 Percentage dummy points                               0.00%
 Nr. of k-points processed together in baspnt            30
 Nr. of symmetry operators (real space)                  24
 Symmetry operators in k-space                           24



 Total charge,    analytically                          236.000000000000
                  numerically                           236.000010245586
                  relative error                      0.43E-07

 Valence density, analytically                           80.000000000000
                  numerically                            80.000013233300
                  relative error                      0.17E-06
 use shared memory for sandwiching:  F , as int:            0

 Norms of functions from routine baspnt
 Maximum error in norms     8.100E-05 for function       62
 Minimum accuracy required  1.000E-03

 Norms of functions from routine corpnt
 Maximum error in norms     5.237E-07 for function      107
 Minimum accuracy required  1.000E-03

 Sparseness info - valence
   nr. of functions             224
   max. nr. of functions        224
   min. nr. of functions        154
   avr. nr. of functions        195
   percentage stored           87.1
 

 Sparseness info - core
   nr. of functions             156
   max. nr. of functions         78
   min. nr. of functions         18
   avr. nr. of functions         52
   percentage stored           33.3
 

 Frozen core overlap error  1.70E-07
 PrepareHam: needLdotB F



 ========================
 Density Fitting (zlmFit)
 ========================
  
 ZlmFit Fit Quality: NORMAL         
  
 Max L-expansion:                        min:   8 max:   8
 Nr. of radial interpolation points:     min:  87 max:  87
 BeckeGrid: periodic partition function using cells up to order            9
 BeckeGrid: periodic partition function using cells up to order            9
 SCF procedure tweaks
   * counter           0
   * addExtraPotential F
   * addExtraPotentialOnLastCycle F
   * extraPotentialName
   * reuseEigenSystem F
 
 skipDiagonalization F parmix=  7.500000000000000E-002 ncylx=         300
 restartSCF F
 forceRestartSolution F



                                          *******************************
                                          *  S C F   P R O C E D U R E  *
                                          *******************************
  

 Nr. of basis functions                     224
 Nr. of core functions                      156
 Nr. of fit functions                         0
 Nr. of symmetry unique K-points             12
 Valence charge                           80.00
 Nr. of symmetry operators                   24

 Settings for convergence
 --------------------------------------------------------------------------------
   Initial density:          psi
 --------------------------------------------------------------------------------

 cyc=  0 err=0.00E+00 cpu=  11s ela=  11s
 cyc=  1 err=3.71E-02 meth=1 nvec= 1 mix=0.0750 cpu=  11s ela=  12s fit=4.64E-04
 cyc=  2 err=3.24E-02 meth=1 nvec= 2 mix=0.1545 cpu=  10s ela=  11s fit=1.57E-04
 cyc=  3 err=2.03E-02 meth=1 nvec= 3 mix=0.1591 cpu=  10s ela=  11s fit=4.25E-04
 cyc=  4 err=1.08E-02 meth=1 nvec= 4 mix=0.1639 cpu=  10s ela=  11s fit=9.05E-04
 cyc=  5 err=2.58E-03 meth=1 nvec= 3 mix=0.1688 cpu=  10s ela=  11s fit=9.50E-04
 cyc=  6 err=2.03E-03 meth=1 nvec= 4 mix=0.1739 cpu=  10s ela=  11s fit=1.02E-03
 cyc=  7 err=3.87E-04 meth=1 nvec= 4 mix=0.1791 cpu=  10s ela=  11s fit=1.02E-03
 cyc=  8 err=3.13E-04 meth=1 nvec= 5 mix=0.1845 cpu=  10s ela=  11s fit=1.04E-03
 cyc=  9 err=3.02E-05 meth=1 nvec= 5 mix=0.1900 cpu=  10s ela=  11s fit=1.04E-03
 cyc= 10 err=2.48E-05 meth=1 nvec= 6 mix=0.1957 cpu=  10s ela=  11s fit=1.04E-03
 cyc= 11 err=3.44E-06 meth=1 nvec= 6 mix=0.2016 cpu=  10s ela=  11s fit=1.04E-03
 cyc= 12 err=2.84E-06 meth=1 nvec= 7 mix=0.2076 cpu=  11s ela=  11s fit=1.04E-03

 CONVERGENCE REACHED
 cyc= 13 err=2.27E-07 meth=1 nvec= 6 mix=0.2139 cpu=  10s ela=  11s fit=1.04E-03


         -------------------- CYCLE   14 --------------------
 Self consistent error (density)                       2.27E-07



                                             *************************
                                             *  P R O P E R T I E S  *
                                             *************************
  



 ===================================
 B A N D   E N E R G Y   R A N G E S
 ===================================
  
 The energies below are in Hartree.
 =================================================
       band          min          max   occupation
 =================================================
          1     -8.03142     -8.03142      1.00000
          2     -8.03142     -8.03142      1.00000
          3     -8.03142     -8.03142      1.00000
          4     -8.03142     -8.03142      1.00000
          5     -6.29317     -6.29317      1.00000
          6     -6.29317     -6.29317      1.00000
          7     -6.29317     -6.29317      1.00000
          8     -6.29317     -6.29317      1.00000
          9     -5.80268     -5.80268      1.00000
         10     -5.80268     -5.80268      1.00000
         11     -5.80268     -5.80268      1.00000
         12     -5.80268     -5.80268      1.00000
         13     -5.80236     -5.80236      1.00000
         14     -5.80236     -5.80236      1.00000
         15     -5.80236     -5.80236      1.00000
         16     -5.80236     -5.80236      1.00000
         17     -5.80215     -5.80215      1.00000
         18     -5.80215     -5.80215      1.00000
         19     -5.80215     -5.80215      1.00000
         20     -5.80215     -5.80215      1.00000
         21     -5.44219     -5.44219      1.00000
         22     -5.44219     -5.44219      1.00000
         23     -5.44219     -5.44219      1.00000
         24     -5.44219     -5.44219      1.00000
         25     -5.44194     -5.44194      1.00000
         26     -5.44194     -5.44194      1.00000
         27     -5.44194     -5.44194      1.00000
         28     -5.44194     -5.44194      1.00000
         29     -5.44172     -5.44172      1.00000
         30     -5.44172     -5.44172      1.00000
         31     -5.44172     -5.44172      1.00000
         32     -5.44172     -5.44172      1.00000
         33     -5.44160     -5.44160      1.00000
         34     -5.44160     -5.44160      1.00000
         35     -5.44160     -5.44160      1.00000
         36     -5.44160     -5.44160      1.00000
         37     -3.56731     -3.56731      1.00000
         38     -3.56731     -3.56731      1.00000
         39     -3.56731     -3.56731      1.00000
         40     -3.56731     -3.56731      1.00000
         41     -3.56660     -3.56659      1.00000
         42     -3.56660     -3.56659      1.00000
         43     -3.56660     -3.56659      1.00000
         44     -3.56660     -3.56659      1.00000
         45     -1.45821     -1.45799      1.00000
         46     -1.45821     -1.45799      1.00000
         47     -1.45821     -1.45799      1.00000
         48     -1.45821     -1.45799      1.00000
         49     -1.45724     -1.45715      1.00000
         50     -1.45724     -1.45715      1.00000
         51     -1.45721     -1.45715      1.00000
         52     -1.45721     -1.45715      1.00000
         53     -1.20369     -1.20311      1.00000
         54     -1.20369     -1.20311      1.00000
         55     -1.20369     -1.20310      1.00000
         56     -1.20369     -1.20310      1.00000
         57     -1.20247     -1.20234      1.00000
         58     -1.20247     -1.20234      1.00000
         59     -1.20243     -1.20232      1.00000
         60     -1.20243     -1.20232      1.00000
         61     -1.20228     -1.20188      1.00000
         62     -1.20228     -1.20188      1.00000
         63     -1.20224     -1.20184      1.00000
         64     -1.20224     -1.20184      1.00000
         65     -1.01468     -1.00496      1.00000
         66     -1.01468     -1.00496      1.00000
         67     -1.01316     -1.00496      1.00000
         68     -1.01316     -1.00496      1.00000
         69     -0.56068     -0.54212      1.00000
         70     -0.56068     -0.54212      1.00000
         71     -0.56057     -0.53594      1.00000
         72     -0.56057     -0.53594      1.00000
         73     -0.27240     -0.23025      1.00000
         74     -0.27240     -0.23025      1.00000
         75     -0.26907     -0.15146      1.00000
         76     -0.26907     -0.15146      1.00000
         77     -0.23892     -0.11962      1.00000
         78     -0.23892     -0.11962      1.00000
         79     -0.20859     -0.11962      1.00000
         80     -0.20858     -0.11962      1.00000
         81     -0.11334      0.01436      0.00000
         82     -0.11334      0.01436      0.00000
         83     -0.04737      0.05154      0.00000
         84     -0.04737      0.05154      0.00000
         85      0.06297      0.15969      0.00000
         86      0.06297      0.15969      0.00000
         87      0.08838      0.19211      0.00000
         88      0.08838      0.19211      0.00000
         89      0.10620      0.32460      0.00000
         90      0.10620      0.32460      0.00000
         91      0.15611      0.32460      0.00000
         92      0.15611      0.32460      0.00000
         93      0.24576      0.34941      0.00000
         94      0.24576      0.34941      0.00000
         95      0.24788      0.38293      0.00000
         96      0.24788      0.38293      0.00000
         97      0.31998      0.43854      0.00000
         98      0.31998      0.43854      0.00000
         99      0.35973      0.44594      0.00000
        100      0.35973      0.44594      0.00000
        101      0.38257      0.46373      0.00000
        102      0.38257      0.46373      0.00000
        103      0.38257      0.50241      0.00000
        104      0.38257      0.50241      0.00000
        105      0.47499      0.54802      0.00000
        106      0.47499      0.54802      0.00000
        107      0.49320      0.56806      0.00000
        108      0.49320      0.56806      0.00000
        109      0.54420      0.67747      0.00000
        110      0.54420      0.67747      0.00000
        111      0.55312      0.67747      0.00000
        112      0.55312      0.67747      0.00000
        113      0.57221      0.77137      0.00000
        114      0.57221      0.77137      0.00000
        115      0.59201      0.81308      0.00000
        116      0.59201      0.81308      0.00000
        117      0.75370      0.89326      0.00000
        118      0.75370      0.89326      0.00000
        119      0.81953      0.96474      0.00000
        120      0.81953      0.96474      0.00000
 =================================================

----------------------------------------
Band gap information
----------------------------------------
Number of valence electrons                    80
Valence band index                             80
Top of valence band (a.u.)                 -0.120
Bottom of conduction band (a.u.)           -0.113
Top of valence band at k-point              0.000     0.000    -0.216
Bottom of conduction band at k-point        0.000     0.000     0.000
Indirect band gap
Band gap (a.u.)                             0.006
Band gap (eV)                               0.171
Band gap (kcal/mol)                         3.945
 



 =============================================
 I N T E R N A L    A T O M    O R D E R I N G
 =============================================
  
   --------------------------------------------------------------------------------
         type         q       set      indx   (input)         x         y         z
   --------------------------------------------------------------------------------
            1       118         1         1         1      -1.9       1.1       3.6
            1       118         1         2         2       1.9      -1.1      -3.6
   --------------------------------------------------------------------------------



 =============================
 E N E R G Y   A N A L Y S I S
 =============================
  
 Formation energy w.r.t. spherically-symmetric spin-restricted atoms

                                                             (a.u.)            (eV)     (kCal/mol)
 --------------------------------------------------------------------------------------------------

 Kinetic                                                       0.35830129       9.7499      224.84
 XC                                                           -0.05148537      -1.4010      -32.31
 Electrostatic                                                -0.10328352      -2.8105      -64.81
 V(atomic)*def                                                -0.20336781      -5.5339     -127.62
 V(def)*def                                                    0.00154214       0.0420        0.97
 Dispersion                                                   -0.03239195      -0.8814      -20.33
 --------------------------------------------------------------------------------------------------

 Final bond energy (SCF)                                      -0.03068522      -0.8350      -19.26
 
 Fit error correction used (Vdef*err)                         -0.00000211      -0.0001       -0.00

 ==================================================================================================



 =======================
 F O R M   F A C T O R S
 =======================
  




 Form factors (amplitude and phase/pi)

 First line : direct projection 
 Second line: overlap taken into account

 N.B.: the coefficients in the expansion of the total coulomb potential
       due to the nuclear charges have been removed analytically.

 --------------------------------------------------------------------------------------------
                                       Total            Total     Deformation     Deformation
        Coordinates                  Density        Potential         Density       Potential
 --------------------------------------------------------------------------------------------

   1)      0      0      0     236.0000  1.00  183.0132  0.00    0.0000  0.00    5.1861  0.00
       0.000  0.000  0.000     235.9785  1.00  182.9817 -0.00    0.0000  0.00    5.1859 -0.00

   2)      0      0     -1       0.0000  0.00    0.0000  0.00    0.0000  0.00    0.0000  0.00
       0.000  0.000 -0.433       0.0000  0.00    0.0000  0.00    0.0000  0.00    0.0000  0.00

   3)      0      0     -2     217.0371  0.00  217.0366 -0.00    0.1262  1.00    0.1267  1.00
       0.000  0.000 -0.866     217.0137  0.00  217.0391 -0.00    0.1262  1.00    0.1266  1.00

 --------------------------------------------------------------------------------------------


   noper                                       24
   nfunc                                      380
   nprocsThisNode                              20
   nfuncThisProcess                            19
   safeMaxFuncSliceSize                         1
   requestedMaxFuncSliceSize                  128
   actual maxFuncSliceSize                     19
   numSlices                                    1
   nEnergies                                  164
       Nr. of bands used for DOS:    117
   nband_dosplot                              117
   bandSliceSize                               30
   num band slices                              4



 =======================================
 M U L L I K E N   P O P U L A T I O N S
 =======================================
  

 BASISFUNCTION         Q
 --------------------------------
 1/Og/NO/6s1/2:+1/2          1.000
 1/Og/NO/6s1/2:-1/2          1.000
 1/Og/NO/6p1/2:+1/2          1.000
 1/Og/NO/6p1/2:-1/2          1.000
 1/Og/NO/6p3/2:+3/2          0.999
 1/Og/NO/6p3/2:+1/2          1.000
 1/Og/NO/6p3/2:-1/2          1.000
 1/Og/NO/6p3/2:-3/2          0.999
 1/Og/NO/5f5/2:+5/2          1.000
 1/Og/NO/5f5/2:+3/2          1.000
 1/Og/NO/5f5/2:+1/2          1.000
 1/Og/NO/5f5/2:-1/2          1.000
 1/Og/NO/5f5/2:-3/2          1.000
 1/Og/NO/5f5/2:-5/2          1.000
 1/Og/NO/5f7/2:+7/2          1.000
 1/Og/NO/5f7/2:+5/2          1.000
 1/Og/NO/5f7/2:+3/2          1.000
 1/Og/NO/5f7/2:+1/2          1.000
 1/Og/NO/5f7/2:-1/2          1.000
 1/Og/NO/5f7/2:-3/2          1.000
 1/Og/NO/5f7/2:-5/2          1.000
 1/Og/NO/5f7/2:-7/2          1.000
 1/Og/NO/6d3/2:+3/2          1.002
 1/Og/NO/6d3/2:+1/2          1.002
 1/Og/NO/6d3/2:-1/2          1.002
 1/Og/NO/6d3/2:-3/2          1.002
 1/Og/NO/6d5/2:+5/2          1.002
 1/Og/NO/6d5/2:+3/2          1.003
 1/Og/NO/6d5/2:+1/2          1.002
 1/Og/NO/6d5/2:-1/2          1.002
 1/Og/NO/6d5/2:-3/2          1.003
 1/Og/NO/6d5/2:-5/2          1.002
 1/Og/NO/7s1/2:+1/2          0.992
 1/Og/NO/7s1/2:-1/2          0.992
 1/Og/NO/7p1/2:+1/2          0.976
 1/Og/NO/7p1/2:-1/2          0.976
 1/Og/NO/7p3/2:+3/2          0.874
 1/Og/NO/7p3/2:+1/2          0.887
 1/Og/NO/7p3/2:-1/2          0.887
 1/Og/NO/7p3/2:-3/2          0.874
 1/Og/STO6.55/6s1/2:+1/2    -0.000
 1/Og/STO6.55/6s1/2:-1/2    -0.000
 1/Og/STO5.05/7s1/2:+1/2     0.002
 1/Og/STO5.05/7s1/2:-1/2     0.002
 1/Og/STO2.4/7s1/2:+1/2      0.032
 1/Og/STO2.4/7s1/2:-1/2      0.032
 1/Og/STO4.9/6p1/2:+1/2      0.006
 1/Og/STO4.9/6p1/2:-1/2      0.006
 1/Og/STO4.9/6p3/2:+3/2      0.001
 1/Og/STO4.9/6p3/2:+1/2      0.001
 1/Og/STO4.9/6p3/2:-1/2      0.001
 1/Og/STO4.9/6p3/2:-3/2      0.001
 1/Og/STO3.5/7p1/2:+1/2      0.017
 1/Og/STO3.5/7p1/2:-1/2      0.017
 1/Og/STO3.5/7p3/2:+3/2      0.029
 1/Og/STO3.5/7p3/2:+1/2      0.043
 1/Og/STO3.5/7p3/2:-1/2      0.043
 1/Og/STO3.5/7p3/2:-3/2      0.029
 1/Og/STO1.4/7p1/2:+1/2     -0.031
 1/Og/STO1.4/7p1/2:-1/2     -0.031
 1/Og/STO1.4/7p3/2:+3/2      0.090
 1/Og/STO1.4/7p3/2:+1/2      0.068
 1/Og/STO1.4/7p3/2:-1/2      0.068
 1/Og/STO1.4/7p3/2:-3/2      0.090
 1/Og/STO6.25/6d3/2:+3/2    -0.003
 1/Og/STO6.25/6d3/2:+1/2    -0.002
 1/Og/STO6.25/6d3/2:-1/2    -0.002
 1/Og/STO6.25/6d3/2:-3/2    -0.003
 1/Og/STO6.25/6d5/2:+5/2    -0.002
 1/Og/STO6.25/6d5/2:+3/2    -0.002
 1/Og/STO6.25/6d5/2:+1/2    -0.002
 1/Og/STO6.25/6d5/2:-1/2    -0.002
 1/Og/STO6.25/6d5/2:-3/2    -0.002
 1/Og/STO6.25/6d5/2:-5/2    -0.002
 1/Og/STO2.8/6d3/2:+3/2      0.005
 1/Og/STO2.8/6d3/2:+1/2      0.003
 1/Og/STO2.8/6d3/2:-1/2      0.003
 1/Og/STO2.8/6d3/2:-3/2      0.005
 1/Og/STO2.8/6d5/2:+5/2      0.003
 1/Og/STO2.8/6d5/2:+3/2      0.001
 1/Og/STO2.8/6d5/2:+1/2      0.002
 1/Og/STO2.8/6d5/2:-1/2      0.002
 1/Og/STO2.8/6d5/2:-3/2      0.001
 1/Og/STO2.8/6d5/2:-5/2      0.003
 1/Og/STO11.95/5f5/2:+5/2   -0.000
 1/Og/STO11.95/5f5/2:+3/2   -0.000
 1/Og/STO11.95/5f5/2:+1/2   -0.000
 1/Og/STO11.95/5f5/2:-1/2   -0.000
 1/Og/STO11.95/5f5/2:-3/2   -0.000
 1/Og/STO11.95/5f5/2:-5/2   -0.000
 1/Og/STO11.95/5f7/2:+7/2   -0.000
 1/Og/STO11.95/5f7/2:+5/2   -0.000
 1/Og/STO11.95/5f7/2:+3/2   -0.000
 1/Og/STO11.95/5f7/2:+1/2   -0.000
 1/Og/STO11.95/5f7/2:-1/2   -0.000
 1/Og/STO11.95/5f7/2:-3/2   -0.000
 1/Og/STO11.95/5f7/2:-5/2   -0.000
 1/Og/STO11.95/5f7/2:-7/2   -0.000
 1/Og/STO5.15/5f5/2:+5/2     0.000
 1/Og/STO5.15/5f5/2:+3/2     0.000
 1/Og/STO5.15/5f5/2:+1/2     0.000
 1/Og/STO5.15/5f5/2:-1/2     0.000
 1/Og/STO5.15/5f5/2:-3/2     0.000
 1/Og/STO5.15/5f5/2:-5/2     0.000
 1/Og/STO5.15/5f7/2:+7/2     0.000
 1/Og/STO5.15/5f7/2:+5/2     0.000
 1/Og/STO5.15/5f7/2:+3/2     0.000
 1/Og/STO5.15/5f7/2:+1/2     0.000
 1/Og/STO5.15/5f7/2:-1/2     0.000
 1/Og/STO5.15/5f7/2:-3/2     0.000
 1/Og/STO5.15/5f7/2:-5/2     0.000
 1/Og/STO5.15/5f7/2:-7/2     0.000
                    -------------
 Charge on atom             40.000
 
 2/Og/NO/6s1/2:+1/2          1.000
 2/Og/NO/6s1/2:-1/2          1.000
 2/Og/NO/6p1/2:+1/2          1.000
 2/Og/NO/6p1/2:-1/2          1.000
 2/Og/NO/6p3/2:+3/2          0.999
 2/Og/NO/6p3/2:+1/2          1.000
 2/Og/NO/6p3/2:-1/2          1.000
 2/Og/NO/6p3/2:-3/2          0.999
 2/Og/NO/5f5/2:+5/2          1.000
 2/Og/NO/5f5/2:+3/2          1.000
 2/Og/NO/5f5/2:+1/2          1.000
 2/Og/NO/5f5/2:-1/2          1.000
 2/Og/NO/5f5/2:-3/2          1.000
 2/Og/NO/5f5/2:-5/2          1.000
 2/Og/NO/5f7/2:+7/2          1.000
 2/Og/NO/5f7/2:+5/2          1.000
 2/Og/NO/5f7/2:+3/2          1.000
 2/Og/NO/5f7/2:+1/2          1.000
 2/Og/NO/5f7/2:-1/2          1.000
 2/Og/NO/5f7/2:-3/2          1.000
 2/Og/NO/5f7/2:-5/2          1.000
 2/Og/NO/5f7/2:-7/2          1.000
 2/Og/NO/6d3/2:+3/2          1.002
 2/Og/NO/6d3/2:+1/2          1.002
 2/Og/NO/6d3/2:-1/2          1.002
 2/Og/NO/6d3/2:-3/2          1.002
 2/Og/NO/6d5/2:+5/2          1.002
 2/Og/NO/6d5/2:+3/2          1.003
 2/Og/NO/6d5/2:+1/2          1.002
 2/Og/NO/6d5/2:-1/2          1.002
 2/Og/NO/6d5/2:-3/2          1.003
 2/Og/NO/6d5/2:-5/2          1.002
 2/Og/NO/7s1/2:+1/2          0.992
 2/Og/NO/7s1/2:-1/2          0.992
 2/Og/NO/7p1/2:+1/2          0.976
 2/Og/NO/7p1/2:-1/2          0.976
 2/Og/NO/7p3/2:+3/2          0.874
 2/Og/NO/7p3/2:+1/2          0.887
 2/Og/NO/7p3/2:-1/2          0.887
 2/Og/NO/7p3/2:-3/2          0.874
 2/Og/STO6.55/6s1/2:+1/2    -0.000
 2/Og/STO6.55/6s1/2:-1/2    -0.000
 2/Og/STO5.05/7s1/2:+1/2     0.002
 2/Og/STO5.05/7s1/2:-1/2     0.002
 2/Og/STO2.4/7s1/2:+1/2      0.032
 2/Og/STO2.4/7s1/2:-1/2      0.032
 2/Og/STO4.9/6p1/2:+1/2      0.006
 2/Og/STO4.9/6p1/2:-1/2      0.006
 2/Og/STO4.9/6p3/2:+3/2      0.001
 2/Og/STO4.9/6p3/2:+1/2      0.001
 2/Og/STO4.9/6p3/2:-1/2      0.001
 2/Og/STO4.9/6p3/2:-3/2      0.001
 2/Og/STO3.5/7p1/2:+1/2      0.017
 2/Og/STO3.5/7p1/2:-1/2      0.017
 2/Og/STO3.5/7p3/2:+3/2      0.029
 2/Og/STO3.5/7p3/2:+1/2      0.043
 2/Og/STO3.5/7p3/2:-1/2      0.043
 2/Og/STO3.5/7p3/2:-3/2      0.029
 2/Og/STO1.4/7p1/2:+1/2     -0.031
 2/Og/STO1.4/7p1/2:-1/2     -0.031
 2/Og/STO1.4/7p3/2:+3/2      0.090
 2/Og/STO1.4/7p3/2:+1/2      0.068
 2/Og/STO1.4/7p3/2:-1/2      0.068
 2/Og/STO1.4/7p3/2:-3/2      0.090
 2/Og/STO6.25/6d3/2:+3/2    -0.003
 2/Og/STO6.25/6d3/2:+1/2    -0.002
 2/Og/STO6.25/6d3/2:-1/2    -0.002
 2/Og/STO6.25/6d3/2:-3/2    -0.003
 2/Og/STO6.25/6d5/2:+5/2    -0.002
 2/Og/STO6.25/6d5/2:+3/2    -0.002
 2/Og/STO6.25/6d5/2:+1/2    -0.002
 2/Og/STO6.25/6d5/2:-1/2    -0.002
 2/Og/STO6.25/6d5/2:-3/2    -0.002
 2/Og/STO6.25/6d5/2:-5/2    -0.002
 2/Og/STO2.8/6d3/2:+3/2      0.005
 2/Og/STO2.8/6d3/2:+1/2      0.003
 2/Og/STO2.8/6d3/2:-1/2      0.003
 2/Og/STO2.8/6d3/2:-3/2      0.005
 2/Og/STO2.8/6d5/2:+5/2      0.003
 2/Og/STO2.8/6d5/2:+3/2      0.001
 2/Og/STO2.8/6d5/2:+1/2      0.002
 2/Og/STO2.8/6d5/2:-1/2      0.002
 2/Og/STO2.8/6d5/2:-3/2      0.001
 2/Og/STO2.8/6d5/2:-5/2      0.003
 2/Og/STO11.95/5f5/2:+5/2   -0.000
 2/Og/STO11.95/5f5/2:+3/2   -0.000
 2/Og/STO11.95/5f5/2:+1/2   -0.000
 2/Og/STO11.95/5f5/2:-1/2   -0.000
 2/Og/STO11.95/5f5/2:-3/2   -0.000
 2/Og/STO11.95/5f5/2:-5/2   -0.000
 2/Og/STO11.95/5f7/2:+7/2   -0.000
 2/Og/STO11.95/5f7/2:+5/2   -0.000
 2/Og/STO11.95/5f7/2:+3/2   -0.000
 2/Og/STO11.95/5f7/2:+1/2   -0.000
 2/Og/STO11.95/5f7/2:-1/2   -0.000
 2/Og/STO11.95/5f7/2:-3/2   -0.000
 2/Og/STO11.95/5f7/2:-5/2   -0.000
 2/Og/STO11.95/5f7/2:-7/2   -0.000
 2/Og/STO5.15/5f5/2:+5/2     0.000
 2/Og/STO5.15/5f5/2:+3/2     0.000
 2/Og/STO5.15/5f5/2:+1/2     0.000
 2/Og/STO5.15/5f5/2:-1/2     0.000
 2/Og/STO5.15/5f5/2:-3/2     0.000
 2/Og/STO5.15/5f5/2:-5/2     0.000
 2/Og/STO5.15/5f7/2:+7/2     0.000
 2/Og/STO5.15/5f7/2:+5/2     0.000
 2/Og/STO5.15/5f7/2:+3/2     0.000
 2/Og/STO5.15/5f7/2:+1/2     0.000
 2/Og/STO5.15/5f7/2:-1/2     0.000
 2/Og/STO5.15/5f7/2:-3/2     0.000
 2/Og/STO5.15/5f7/2:-5/2     0.000
 2/Og/STO5.15/5f7/2:-7/2     0.000
                    -------------
 Charge on atom             40.000
 
 Total charge               80.000


 ATOM/ATOM OVERLAP MATRIX
 (OFF-DIAGONAL ELEMENTS HALF OF OVERLAP POPULATION)
 (order of atoms as on input)
 ATOM         CORE    1       2       3       4       5       6       7       8       9
           -------------------------------------------------------------------------------
   0)
      1 :  0.0078
   1)
      1 : -0.0039 40.6157
   2)
      1 : -0.0039 -0.6118 40.6157
 EFERMI=      0.000000000000
 TOTALDOS
 NSPIN,NE= 1   164
  -7.9261667868349E+00   0.0000000000000E+00
  -7.9211667868349E+00   0.0000000000000E+00
  -7.9161667868349E+00   2.0000000000000E+00
  -7.9111667868349E+00   2.0000000000000E+00
  -7.9061667868349E+00   0.0000000000000E+00
  -6.1911667868349E+00   0.0000000000000E+00
  -6.1861667868349E+00   0.0000000000000E+00
  -6.1811667868349E+00   0.0000000000000E+00
  -6.1761667868349E+00   4.0000000000000E+00
  -6.1711667868349E+00   0.0000000000000E+00
  -5.7011667868349E+00   0.0000000000000E+00
  -5.6961667868349E+00   0.0000000000000E+00
  -5.6911667868349E+00   0.0000000000000E+00
  -5.6861667868349E+00   1.2000000000000E+01
  -5.6811667868349E+00   0.0000000000000E+00
  -5.3411667868349E+00   0.0000000000000E+00
  -5.3361667868349E+00   0.0000000000000E+00
  -5.3311667868349E+00   0.0000000000000E+00
  -5.3261667868349E+00   1.6000000000000E+01
  -5.3211667868349E+00   0.0000000000000E+00
  -3.4661667868349E+00   0.0000000000000E+00
  -3.4611667868349E+00   0.0000000000000E+00
  -3.4561667868349E+00   0.0000000000000E+00
  -3.4511667868349E+00   8.0000000000000E+00
  -3.4461667868349E+00   0.0000000000000E+00
  -1.3561667868349E+00   0.0000000000000E+00
  -1.3511667868349E+00   0.0000000000000E+00
  -1.3461667868349E+00   0.0000000000000E+00
  -1.3411667868349E+00   8.0000000000000E+00
  -1.3361667868349E+00   0.0000000000000E+00
  -1.1011667868349E+00   1.8969201209806E-15
  -1.0961667868349E+00   0.0000000000000E+00
  -1.0911667868349E+00   0.0000000000000E+00
  -1.0861667868349E+00   1.2000000000000E+01
  -1.0811667868349E+00   0.0000000000000E+00
  -9.1116678683490E-01   0.0000000000000E+00
  -9.0616678683490E-01   0.0000000000000E+00
  -9.0116678683490E-01   0.0000000000000E+00
  -8.9616678683490E-01   1.7542100959932E-01
  -8.9116678683490E-01   2.5686183269060E+00
  -8.8616678683490E-01   1.2559606634947E+00
  -8.8116678683490E-01   0.0000000000000E+00
  -4.5616678683490E-01   0.0000000000000E+00
  -4.5116678683490E-01   0.0000000000000E+00
  -4.4616678683490E-01   0.0000000000000E+00
  -4.4116678683490E-01   1.6214488184855E+00
  -4.3616678683490E-01   1.4289151533059E+00
  -4.3116678683490E-01   6.8908582575557E-01
  -4.2616678683490E-01   2.2296920715710E-01
  -4.2116678683490E-01   3.7547218902572E-02
  -4.1616678683490E-01   3.3776393299493E-05
  -4.1116678683490E-01   0.0000000000000E+00
  -4.0616678683490E-01   0.0000000000000E+00
  -1.7116678683490E-01   0.0000000000000E+00
  -1.6616678683490E-01   0.0000000000000E+00
  -1.6116678683490E-01   0.0000000000000E+00
  -1.5616678683490E-01   2.4813231582070E-04
  -1.5116678683490E-01   2.8567885511074E-01
  -1.4616678683490E-01   9.5432213557037E-01
  -1.4116678683490E-01   9.5305868395369E-01
  -1.3616678683490E-01   5.8594263418181E-01
  -1.3116678683490E-01   3.7142497341216E-01
  -1.2616678683490E-01   2.5792471516765E-01
  -1.2116678683490E-01   1.9437176433275E-01
  -1.1616678683490E-01   2.1488864706597E-01
  -1.1116678683490E-01   2.4725585813794E-01
  -1.0616678683490E-01   2.5981051224397E-01
  -1.0116678683490E-01   2.6964861023227E-01
  -9.6166786834901E-02   2.4865032654665E-01
  -9.1166786834901E-02   2.3406391243796E-01
  -8.6166786834902E-02   2.6061236425805E-01
  -8.1166786834902E-02   3.7876393037922E-01
  -7.6166786834901E-02   4.8513241491446E-01
  -7.1166786834901E-02   4.0059703121030E-01
  -6.6166786834901E-02   3.2816090041121E-01
  -6.1166786834901E-02   2.6768870672302E-01
  -5.6166786834901E-02   2.0780481462781E-01
  -5.1166786834901E-02   1.4924912997660E-01
  -4.6166786834902E-02   1.1511336493284E-01
  -4.1166786834902E-02   8.9993904832220E-02
  -3.6166786834901E-02   7.0673455229119E-02
  -3.1166786834901E-02   5.5796745639012E-02
  -2.6166786834901E-02   4.2459154746890E-02
  -2.1166786834901E-02   3.0713385024436E-02
  -1.6166786834901E-02   2.1393814681065E-02
  -1.1166786834901E-02   1.3059120935498E-02
  -6.1667868349015E-03   5.2271353304107E-03
  -1.1667868349016E-03   2.7086543805797E-04
   3.8332131650992E-03   2.5028667750995E-06
   8.8332131650991E-03   1.1526684423434E-04
   1.3833213165099E-02   4.8464439482911E-04
   1.8833213165099E-02   1.1210686064155E-03
   2.3833213165099E-02   1.9907156307947E-03
   2.8833213165099E-02   2.9884433632530E-03
   3.3833213165099E-02   4.0938812686424E-03
   3.8833213165098E-02   5.3070293469628E-03
   4.3833213165098E-02   6.6278875982143E-03
   4.8833213165099E-02   8.0564641598562E-03
   5.3833213165099E-02   9.7240298456810E-03
   5.8833213165099E-02   1.1989155011039E-02
   6.3833213165099E-02   1.4783761216157E-02
   6.8833213165099E-02   1.7960010481706E-02
   7.3833213165099E-02   2.4890968371789E-02
   7.8833213165099E-02   3.5851755139927E-02
   8.3833213165098E-02   4.8341497659022E-02
   8.8833213165099E-02   6.3973957251354E-02
   9.3833213165098E-02   8.2454811639350E-02
   9.8833213165099E-02   1.0358531469989E-01
   1.0383321316510E-01   1.4043118658161E-01
   1.0883321316510E-01   2.0093726276845E-01
   1.1383321316510E-01   3.0851014895255E-01
   1.1883321316510E-01   4.5081604321557E-01
   1.2383321316510E-01   4.3021066139276E-01
   1.2883321316510E-01   2.1867560101554E-01
   1.3383321316510E-01   1.5248637311136E-01
   1.3883321316510E-01   2.9668464528743E-01
   1.4383321316510E-01   3.3740482904416E-01
   1.4883321316510E-01   3.5668551936687E-01
   1.5383321316510E-01   2.5623997225822E-01
   1.5883321316510E-01   1.9731028006642E-01
   1.6383321316510E-01   1.5694185936327E-01
   1.6883321316510E-01   5.2322452179885E-02
   1.7383321316510E-01   0.0000000000000E+00
   1.7883321316510E-01   6.1707608424740E-06
   1.8383321316510E-01   4.9725419688362E-03
   1.8883321316510E-01   4.8575874549643E-02
   1.9383321316510E-01   1.5800139704323E-01
   1.9883321316510E-01   2.4518848745860E-01
   2.0383321316510E-01   2.7882979766120E-01
   2.0883321316510E-01   2.9590239918574E-01
   2.1383321316510E-01   3.5853012866218E-01
   2.1883321316510E-01   3.6633804688833E-01
   2.2383321316510E-01   3.6467318153261E-01
   2.2883321316510E-01   3.3970240214151E-01
   2.3383321316510E-01   3.1932912781727E-01
   2.3883321316510E-01   2.8045752431771E-01
   2.4383321316510E-01   2.2145608839405E-01
   2.4883321316510E-01   2.0843877126599E-01
   2.5383321316510E-01   1.9227121969514E-01
   2.5883321316510E-01   1.7121861137429E-01
   2.6383321316510E-01   1.6545462247918E-01
   2.6883321316510E-01   1.6653113480724E-01
   2.7383321316510E-01   1.6871910247822E-01
   2.7883321316510E-01   1.8024709709372E-01
   2.8383321316510E-01   1.9575379976005E-01
   2.8883321316510E-01   2.1864484074354E-01
   2.9383321316510E-01   2.5129804090864E-01
   2.9883321316510E-01   2.6748611776132E-01
   3.0383321316510E-01   2.9880716333657E-01
   3.0883321316510E-01   3.1810684703439E-01
   3.1383321316510E-01   3.1429481056597E-01
   3.1883321316510E-01   2.5012463376850E-01
   3.2383321316510E-01   2.0434119647236E-01
   3.2883321316510E-01   1.6925821983177E-01
   3.3383321316510E-01   1.4208003017800E-01
   3.3883321316510E-01   1.2583418887149E-01
   3.4383321316510E-01   1.1533482250907E-01
   3.4883321316510E-01   1.0193422561023E-01
   3.5383321316510E-01   8.6201373019237E-02
   3.5883321316510E-01   7.1251445758783E-02
   3.6383321316510E-01   6.6589768834194E-02
   3.6883321316510E-01   1.3348295297606E-01
   3.7383321316510E-01   2.0378410602038E-01
   3.7883321316510E-01   4.8185715531168E-01
 ENDINPUT



 ======================
 Atomic Charge Analysis
 ======================
  
 Deformation charges with respect to neutral atoms.
 
   ------------------------------------------------------------------------------------------------------
     Atom                 Hirshfeld   Voronoi(deformation)                    CM5               Mulliken
   ------------------------------------------------------------------------------------------------------
      1  Og                   0.000                  0.000                  0.000                  0.000
      2  Og                   0.000                  0.000                  0.000                  0.000
   ------------------------------------------------------------------------------------------------------
      Total:                  0.000                  0.000                  0.000                  0.000
   ------------------------------------------------------------------------------------------------------
 



 ============================================
 Atomic Charge Analysis (Spin Up - Spin Down)
 ============================================
  
   -------------------------------------------------------------------------------
     Atom                 Hirshfeld   Voronoi(deformation)                    CM5
   -------------------------------------------------------------------------------
      1  Og                   0.000                  0.000                  0.000
      2  Og                   0.000                  0.000                  0.000
   -------------------------------------------------------------------------------
      Total:                  0.000                  0.000                  0.000
   -------------------------------------------------------------------------------
 
 WARNING: matrix written, but never read. Matrix name: S(C/C)**-1


    =====================
     CALCULATION RESULTS
    =====================

Energy (hartree)            -0.03068522


--------------
Atomic charges
--------------
  Index   Atom    Charge
      1     Og    0.0000
      2     Og    0.0000




 =================
 Timing Statistics
 =================
  
 Total Used :                     CPU=      178.76      System=        1.58     Elapsed=      181.14

 Calls  Section                     ( Mean, Percentage )
 ---------------------------------------------------------------------------------------------------
     3  ><      ................      0.00    0.00             0.00    0.00             0.00    0.00
     1  GETINP  ................      0.92    0.51             0.02    1.08             0.94    0.52
     1  DIRAC   ................      3.49    1.95             0.03    1.94             3.52    1.94
     1  SLTORB  ................      0.02    0.01             0.00    0.01             0.02    0.01
     1  FITRAD  ................      0.00    0.00             0.00    0.00             0.00    0.00
     1  RADIAL  ................      0.14    0.08             0.01    0.52             0.15    0.08
     1  POINTS  ................      0.37    0.21             0.02    1.00             0.39    0.21
     1  CELLS   ................      0.17    0.09             0.01    0.52             0.18    0.10
     1  ELSTAT  ................      0.02    0.01             0.00    0.00             0.02    0.01
     1  ATMFNC  ................      0.08    0.04             0.02    1.01             0.09    0.05
     1  NUMGRD  ................     13.04    7.30             0.14    8.61            13.18    7.28
    15  RHOPMD  ................      3.83   32.15             0.03   25.19             3.88   32.09
    15  RHOFIT  ................      2.29   19.20             0.02   23.72             2.33   19.30
    15  PMATPROPS ..............      0.00    0.01             0.00    0.00             0.00    0.01
    15  RHOPOT  ................      0.03    0.27             0.00    1.78             0.03    0.28
    15  SCFEXTRA1 ..............      0.00    0.01             0.00    0.00             0.00    0.01
    30  EIGSYS  ................      2.16   36.20             0.01   21.56             2.18   36.04
    15  FERMI   ................      0.08    0.70             0.00    1.79             0.09    0.71
    14  PMATRX  ................      0.03    0.22             0.01    6.17             0.04    0.27
     1  ENERGY  ................      0.09    0.05             0.00    0.25             0.10    0.05
     1  CHARGE  ................      0.01    0.01             0.00    0.00             0.01    0.01
     1  CM5CHARGES .............      0.01    0.00             0.00    0.00             0.01    0.00
     1  HIRSH   ................      0.00    0.00             0.00    0.00             0.00    0.00
     1  DOS     ................      1.72    0.96             0.08    4.83             1.82    1.00

AMS application finished. Exiting.
NORMAL TERMINATION
     Total cpu time:     179.00
  Total system time:       1.95
 Total elapsed time:     182.84
