 *******************************************************************************
 **                                                                           **
 **                              MOPAC v23.0.3                                **
 **                                                                           **
 *******************************************************************************
 **          Digital Object Identifier (DOI): 10.5281/zenodo.6511958          **
 **    Visit the DOI location for information on how to cite this program.    **
 *******************************************************************************

                              PM7 CALCULATION RESULTS

 *******************************************************************************
 *  CALCULATION DONE:                                Fri Jan 31 20:14:48 2025  *
 *  PM7        - The PM7 Hamiltonian to be used
 *  SINGLET    - SPIN STATE DEFINED AS A SINGLET
 *
 *
 *
 *                 CHARGE ON SYSTEM = 0
 *
 *
 *
 *  PRECISE    - TIGHTER CRITERIA TO BE USED
 *  T=         - A TIME OF 172800.0 SECONDS REQUESTED
 *  DUMP=N     - RESTART FILE WRITTEN EVERY 7200.0 SECONDS REQUESTED
 *  LARGE      - EXPANDED OUTPUT TO BE PRINTED
 *******************************************************************************
 LARGE CHARGE=0 SINGLET  PM7 PRECISE
 Cr(CO)6

   ATOM   CHEMICAL          X               Y               Z
  NUMBER   SYMBOL      (ANGSTROMS)     (ANGSTROMS)     (ANGSTROMS)
 
     1       C         29.01960000  *  18.02850000  *   0.00000000  *
     2      Cr         30.10470000  *  19.60690000  *   0.00000000  *
     3       C         31.18980000  *  21.18530000  *   0.00000000  *
     4       C         30.10470000  *  19.60690000  *   1.91540000  *
     5       C         30.10470000  *  19.60690000  *  -1.91540000  *
     6       C         28.52630000  *  20.69200000  *   0.00000000  *
     7       C         31.68310000  *  18.52180000  *   0.00000000  *
     8       O         28.36830000  *  17.08110000  *   0.00000000  *
     9       O         31.84120000  *  22.13260000  *   0.00000000  *
    10       O         30.10470000  *  19.60690000  *   3.06500000  *
    11       O         30.10470000  *  19.60690000  *  -3.06500000  *
    12       O         27.57900000  *  21.34340000  *   0.00000000  *
    13       O         32.63040000  *  17.87050000  *   0.00000000  *
 


          CARTESIAN COORDINATES 

    NO.       ATOM           X           Y           Z

     1         C         29.0196     18.0285      0.0000
     2        Cr         30.1047     19.6069      0.0000
     3         C         31.1898     21.1853      0.0000
     4         C         30.1047     19.6069      1.9154
     5         C         30.1047     19.6069     -1.9154
     6         C         28.5263     20.6920      0.0000
     7         C         31.6831     18.5218      0.0000
     8         O         28.3683     17.0811      0.0000
     9         O         31.8412     22.1326      0.0000
    10         O         30.1047     19.6069      3.0650
    11         O         30.1047     19.6069     -3.0650
    12         O         27.5790     21.3434      0.0000
    13         O         32.6304     17.8705      0.0000

 General Reference for PM7:
 "Optimization of Parameters for Semiempirical Methods VI: More Modifications to the 
 NDDO Approximations and Re-optimization of Parameters", J. J. P. Stewart, J. Mol. Mod., 1:32, 19 (2013)
 https://link.springer.com/article/10.1007/s00894-012-1667-x

           Empirical Formula: C6 O6 Cr  =    13 atoms



      MOLECULAR POINT GROUP   :   Oh  


 SINGLET STATE CALCULATION


      RHF CALCULATION, NO. OF DOUBLY OCCUPIED LEVELS = 33


          Geometry optimization using EF


 ALL CONVERGERS ARE NOW FORCED ON
 SHIFT=10, PULAY ON, CAMP-KING ON
 AND ITERATION COUNTER RESET



          DIAGONAL MATRIX USED AS START HESSIAN

 CYCLE:     1 TIME:   0.750 TIME LEFT:  2.00D  GRAD.:    70.396 HEAT: -207.2646


 ALL CONVERGERS ARE NOW FORCED ON
 SHIFT=10, PULAY ON, CAMP-KING ON
 AND ITERATION COUNTER RESET




 ALL CONVERGERS ARE NOW FORCED ON
 SHIFT=10, PULAY ON, CAMP-KING ON
 AND ITERATION COUNTER RESET


 CYCLE:     2 TIME:   1.344 TIME LEFT:  2.00D  GRAD.:   146.294 HEAT: -210.0132


 ALL CONVERGERS ARE NOW FORCED ON
 SHIFT=10, PULAY ON, CAMP-KING ON
 AND ITERATION COUNTER RESET


 CYCLE:     3 TIME:   0.680 TIME LEFT:  2.00D  GRAD.:   150.821 HEAT: -213.7646


 ALL CONVERGERS ARE NOW FORCED ON
 SHIFT=10, PULAY ON, CAMP-KING ON
 AND ITERATION COUNTER RESET




 ALL CONVERGERS ARE NOW FORCED ON
 SHIFT=10, PULAY ON, CAMP-KING ON
 AND ITERATION COUNTER RESET




 ALL CONVERGERS ARE NOW FORCED ON
 SHIFT=10, PULAY ON, CAMP-KING ON
 AND ITERATION COUNTER RESET


 CYCLE:     4 TIME:   2.023 TIME LEFT:  2.00D  GRAD.:    61.945 HEAT: -215.9177


 ALL CONVERGERS ARE NOW FORCED ON
 SHIFT=10, PULAY ON, CAMP-KING ON
 AND ITERATION COUNTER RESET




 ALL CONVERGERS ARE NOW FORCED ON
 SHIFT=10, PULAY ON, CAMP-KING ON
 AND ITERATION COUNTER RESET


 CYCLE:     5 TIME:   1.367 TIME LEFT:  2.00D  GRAD.:    49.239 HEAT: -216.2667


 ALL CONVERGERS ARE NOW FORCED ON
 SHIFT=10, PULAY ON, CAMP-KING ON
 AND ITERATION COUNTER RESET


 CYCLE:     6 TIME:   0.664 TIME LEFT:  2.00D  GRAD.:    21.207 HEAT: -216.7890


 ALL CONVERGERS ARE NOW FORCED ON
 SHIFT=10, PULAY ON, CAMP-KING ON
 AND ITERATION COUNTER RESET




 ALL CONVERGERS ARE NOW FORCED ON
 SHIFT=10, PULAY ON, CAMP-KING ON
 AND ITERATION COUNTER RESET


 CYCLE:     7 TIME:   1.344 TIME LEFT:  2.00D  GRAD.:    47.721 HEAT: -216.8079


 ALL CONVERGERS ARE NOW FORCED ON
 SHIFT=10, PULAY ON, CAMP-KING ON
 AND ITERATION COUNTER RESET


 CYCLE:     8 TIME:   0.680 TIME LEFT:  2.00D  GRAD.:     6.683 HEAT: -217.1868


 ALL CONVERGERS ARE NOW FORCED ON
 SHIFT=10, PULAY ON, CAMP-KING ON
 AND ITERATION COUNTER RESET


 CYCLE:     9 TIME:   0.680 TIME LEFT:  2.00D  GRAD.:     3.662 HEAT: -217.2607


 ALL CONVERGERS ARE NOW FORCED ON
 SHIFT=10, PULAY ON, CAMP-KING ON
 AND ITERATION COUNTER RESET


 CYCLE:    10 TIME:   0.688 TIME LEFT:  2.00D  GRAD.:     5.233 HEAT: -217.2683


 ALL CONVERGERS ARE NOW FORCED ON
 SHIFT=10, PULAY ON, CAMP-KING ON
 AND ITERATION COUNTER RESET




 ALL CONVERGERS ARE NOW FORCED ON
 SHIFT=10, PULAY ON, CAMP-KING ON
 AND ITERATION COUNTER RESET




 ALL CONVERGERS ARE NOW FORCED ON
 SHIFT=10, PULAY ON, CAMP-KING ON
 AND ITERATION COUNTER RESET


 CYCLE:    11 TIME:   2.039 TIME LEFT:  2.00D  GRAD.:     5.357 HEAT: -217.2698
 CYCLE:    12 TIME:   0.008 TIME LEFT:  2.00D  GRAD.:     3.718 HEAT: -217.2728


 ALL CONVERGERS ARE NOW FORCED ON
 SHIFT=10, PULAY ON, CAMP-KING ON
 AND ITERATION COUNTER RESET


 CYCLE:    13 TIME:   0.688 TIME LEFT:  2.00D  GRAD.:     8.724 HEAT: -217.2669
 CYCLE:    14 TIME:   0.008 TIME LEFT:  2.00D  GRAD.:     2.421 HEAT: -217.2750


 ALL CONVERGERS ARE NOW FORCED ON
 SHIFT=10, PULAY ON, CAMP-KING ON
 AND ITERATION COUNTER RESET




 ALL CONVERGERS ARE NOW FORCED ON
 SHIFT=10, PULAY ON, CAMP-KING ON
 AND ITERATION COUNTER RESET


 CYCLE:    15 TIME:   1.398 TIME LEFT:  2.00D  GRAD.:     9.321 HEAT: -217.2660
 CYCLE:    16 TIME:   0.008 TIME LEFT:  2.00D  GRAD.:     0.475 HEAT: -217.2763


 ALL CONVERGERS ARE NOW FORCED ON
 SHIFT=10, PULAY ON, CAMP-KING ON
 AND ITERATION COUNTER RESET


 CYCLE:    17 TIME:   0.680 TIME LEFT:  2.00D  GRAD.:     0.421 HEAT: -217.2767


 ALL CONVERGERS ARE NOW FORCED ON
 SHIFT=10, PULAY ON, CAMP-KING ON
 AND ITERATION COUNTER RESET


 CYCLE:    18 TIME:   0.688 TIME LEFT:  2.00D  GRAD.:     0.973 HEAT: -217.2775


 ALL CONVERGERS ARE NOW FORCED ON
 SHIFT=10, PULAY ON, CAMP-KING ON
 AND ITERATION COUNTER RESET


 CYCLE:    19 TIME:   0.680 TIME LEFT:  2.00D  GRAD.:     1.339 HEAT: -217.2775


 ALL CONVERGERS ARE NOW FORCED ON
 SHIFT=10, PULAY ON, CAMP-KING ON
 AND ITERATION COUNTER RESET


 CYCLE:    20 TIME:   0.680 TIME LEFT:  2.00D  GRAD.:     0.674 HEAT: -217.2786


 ALL CONVERGERS ARE NOW FORCED ON
 SHIFT=10, PULAY ON, CAMP-KING ON
 AND ITERATION COUNTER RESET


 CYCLE:    21 TIME:   0.672 TIME LEFT:  2.00D  GRAD.:     0.484 HEAT: -217.2796


 ALL CONVERGERS ARE NOW FORCED ON
 SHIFT=10, PULAY ON, CAMP-KING ON
 AND ITERATION COUNTER RESET


 CYCLE:    22 TIME:   0.688 TIME LEFT:  2.00D  GRAD.:     0.715 HEAT: -217.2814
 CYCLE:    23 TIME:   0.008 TIME LEFT:  2.00D  GRAD.:     0.577 HEAT: -217.2824


 ALL CONVERGERS ARE NOW FORCED ON
 SHIFT=10, PULAY ON, CAMP-KING ON
 AND ITERATION COUNTER RESET


 CYCLE:    24 TIME:   0.695 TIME LEFT:  2.00D  GRAD.:     0.213 HEAT: -217.2828


 ALL CONVERGERS ARE NOW FORCED ON
 SHIFT=10, PULAY ON, CAMP-KING ON
 AND ITERATION COUNTER RESET


 CYCLE:    25 TIME:   0.688 TIME LEFT:  2.00D  GRAD.:     0.152 HEAT: -217.2828


 ALL CONVERGERS ARE NOW FORCED ON
 SHIFT=10, PULAY ON, CAMP-KING ON
 AND ITERATION COUNTER RESET


 CYCLE:    26 TIME:   0.688 TIME LEFT:  2.00D  GRAD.:     0.089 HEAT: -217.2829
 CYCLE:    27 TIME:   0.008 TIME LEFT:  2.00D  GRAD.:     0.055 HEAT: -217.2829


 ALL CONVERGERS ARE NOW FORCED ON
 SHIFT=10, PULAY ON, CAMP-KING ON
 AND ITERATION COUNTER RESET


 CYCLE:    28 TIME:   0.688 TIME LEFT:  2.00D  GRAD.:     0.031 HEAT: -217.2829

     GRADIENT =  0.03089 IS LESS THAN CUTOFF =  0.05000



 -------------------------------------------------------------------------------
 LARGE CHARGE=0 SINGLET  PM7 PRECISE
 Cr(CO)6



     GEOMETRY OPTIMISED USING EIGENVECTOR FOLLOWING (EF).     
     SCF FIELD WAS ACHIEVED                                   


                              PM7 CALCULATION
                                                       MOPAC v23.0.3 Linux
                                                       Fri Jan 31 20:15:09 2025




          FINAL HEAT OF FORMATION =       -217.28292 KCAL/MOL =    -909.11174 KJ/MOL


          COSMO AREA              =        204.96 SQUARE ANGSTROMS
          COSMO VOLUME            =        202.22 CUBIC ANGSTROMS

          GRADIENT NORM           =          0.03089          =       0.00857 PER ATOM
          IONIZATION POTENTIAL    =          9.841416 EV
          HOMO LUMO ENERGIES (EV) =         -9.841 -0.155
          NO. OF FILLED LEVELS    =         33
          MOLECULAR WEIGHT        =        220.0584         POINT GROUP:  Oh  

          MOLECULAR DIMENSIONS (Angstroms)

            Atom       Atom       Distance
            O     9    O     8     6.32091
            O    11    O    10     6.32084
            O    13    O    12     6.32075


          SCF CALCULATIONS        =         38
 
          WALL-CLOCK TIME         =     21.336 SECONDS
          COMPUTATION TIME        =     21.119 SECONDS




   ATOM   CHEMICAL          X               Y               Z
  NUMBER   SYMBOL      (ANGSTROMS)     (ANGSTROMS)     (ANGSTROMS)
 
     1       C         28.96973190  *  17.95620140  *  -0.00000347  *
     2      Cr         30.10469358  *  19.60689186  *  -0.00004542  *
     3       C         31.23966558  *  21.25757424  *  -0.00000326  *
     4       C         30.10469652  *  19.60687939  *   2.00312763  *
     5       C         30.10469620  *  19.60687938  *  -2.00325633  *
     6       C         28.45405661  *  20.74178448  *  -0.00000345  *
     7       C         31.75535700  *  18.47203533  *  -0.00000358  *
     8       O         28.31428998  *  17.00248369  *   0.00008344  *
     9       O         31.89510791  *  22.21129062  *   0.00008370  *
    10       O         30.10470862  *  19.60687298  *   3.16035692  *
    11       O         30.10470867  *  19.60687254  *  -3.16048496  *
    12       O         27.50050335  *  21.39746524  *   0.00008311  *
    13       O         32.70898974  *  17.81646928  *   0.00008311  *

                             CARTESIAN COORDINATES

   1    C       28.969731899    17.956201399    -0.000003474
   2   Cr       30.104693579    19.606891856    -0.000045425
   3    C       31.239665582    21.257574238    -0.000003261
   4    C       30.104696524    19.606879386     2.003127633
   5    C       30.104696196    19.606879376    -2.003256331
   6    C       28.454056614    20.741784482    -0.000003448
   7    C       31.755357000    18.472035327    -0.000003582
   8    O       28.314289984    17.002483686     0.000083442
   9    O       31.895107909    22.211290624     0.000083701
  10    O       30.104708618    19.606872981     3.160356921
  11    O       30.104708666    19.606872544    -3.160484960
  12    O       27.500503347    21.397465240     0.000083109
  13    O       32.708989745    17.816469282     0.000083113


           Empirical Formula: C6 O6 Cr  =    13 atoms



      MOLECULAR POINT GROUP   :   Oh  


                  EIGENVALUES  
 -33.69399 -33.69396 -33.09757 -33.09752 -33.09738 -33.01356 -22.21493 -22.21489
 -22.11495 -20.32043 -20.32036 -20.32026 -17.27573 -17.27569 -17.27565 -15.84154
 -15.66932 -15.66927 -15.66925 -15.51336 -15.51331 -15.51328 -15.39399 -15.39393
 -15.39390 -14.59064 -14.59054 -12.72333 -12.72320 -12.72306  -9.84153  -9.84146
  -9.84142  -0.15515  -0.15510  -0.15504   0.04003   0.04006   0.04009   0.51650
   0.51654   0.51658   2.23960   2.23973   2.23983   2.33515   3.92854   3.92868
   4.50848   4.50854   4.50862   6.02617   6.02633   6.98606  77.74192  77.74205
  77.74216


              NET ATOMIC CHARGES AND DIPOLE CONTRIBUTIONS

  ATOM NO.   TYPE          CHARGE      No. of ELECS.   s-Pop       p-Pop       d-Pop       
    1          C           0.360773        3.6392     1.58112     2.05810
    2         Cr           0.309956        5.6900     0.33634     0.02808     5.32563
    3          C           0.360768        3.6392     1.58112     2.05811
    4          C           0.360757        3.6392     1.58111     2.05814
    5          C           0.360770        3.6392     1.58113     2.05810
    6          C           0.360756        3.6392     1.58111     2.05814
    7          C           0.360755        3.6392     1.58111     2.05814
    8          O          -0.412416        6.4124     1.85038     4.56203
    9          O          -0.412413        6.4124     1.85038     4.56203
   10          O          -0.412421        6.4124     1.85038     4.56204
   11          O          -0.412420        6.4124     1.85038     4.56204
   12          O          -0.412432        6.4124     1.85038     4.56205
   13          O          -0.412431        6.4124     1.85038     4.56205
 DIPOLE           X         Y         Z       TOTAL
 POINT-CHG.    -0.000    -0.000    -0.001     0.001
 HYBRID         0.000     0.000     0.000     0.000
 SUM           -0.000    -0.000    -0.001     0.001


          ATOMIC ORBITAL ELECTRON POPULATIONS

     Atom    s        px        py        pz      x^2-y^2     xz        z^2       yz        xy
    1  C   1.58112   0.68143   0.81332   0.56336
    2 Cr   0.33634   0.00936   0.00936   0.00936   1.30897   1.42391   0.52692   1.42394   0.64188
    3  C   1.58112   0.68143   0.81332   0.56336
    4  C   1.58111   0.56337   0.56337   0.93139
    5  C   1.58113   0.56336   0.56336   0.93139
    6  C   1.58111   0.81325   0.68152   0.56337
    7  C   1.58111   0.81329   0.68148   0.56337
    8  O   1.85038   1.52311   1.45393   1.58499
    9  O   1.85038   1.52311   1.45393   1.58499
   10  O   1.85038   1.58500   1.58500   1.39204
   11  O   1.85038   1.58499   1.58499   1.39205
   12  O   1.85038   1.45399   1.52306   1.58500
   13  O   1.85038   1.45396   1.52308   1.58500
 *******************************************************************************
 **                                                                           **
 **                              MOPAC v23.0.3                                **
 **                                                                           **
 *******************************************************************************
 **          Digital Object Identifier (DOI): 10.5281/zenodo.6511958          **
 **    Visit the DOI location for information on how to cite this program.    **
 *******************************************************************************

                              PM7 CALCULATION RESULTS

 *******************************************************************************
 *  CALCULATION DONE:                                Fri Jan 31 20:15:09 2025  *
 *  PM7        - The PM7 Hamiltonian to be used
 *  OLDGEO     - PREVIOUS GEOMETRY TO BE USED
 *  PRECISE    - TIGHTER CRITERIA TO BE USED
 *  T=         - A TIME OF 172800.0 SECONDS REQUESTED
 *  DUMP=N     - RESTART FILE WRITTEN EVERY 7200.0 SECONDS REQUESTED
 *  THERMO     - THERMODYNAMIC QUANTITIES TO BE CALCULATED
 *******************************************************************************
OLDGEO PRECISE PM7 THERMO
 Cr(CO)6

   ATOM   CHEMICAL          X               Y               Z
  NUMBER   SYMBOL      (ANGSTROMS)     (ANGSTROMS)     (ANGSTROMS)
 
     1       C         28.96973190  *  17.95620140  *  -0.00000347  *
     2      Cr         30.10469358  *  19.60689186  *  -0.00004542  *
     3       C         31.23966558  *  21.25757424  *  -0.00000326  *
     4       C         30.10469652  *  19.60687939  *   2.00312763  *
     5       C         30.10469620  *  19.60687938  *  -2.00325633  *
     6       C         28.45405661  *  20.74178448  *  -0.00000345  *
     7       C         31.75535700  *  18.47203533  *  -0.00000358  *
     8       O         28.31428998  *  17.00248369  *   0.00008344  *
     9       O         31.89510791  *  22.21129062  *   0.00008370  *
    10       O         30.10470862  *  19.60687298  *   3.16035692  *
    11       O         30.10470867  *  19.60687254  *  -3.16048496  *
    12       O         27.50050335  *  21.39746524  *   0.00008311  *
    13       O         32.70898974  *  17.81646928  *   0.00008311  *
 


          CARTESIAN COORDINATES 

    NO.       ATOM           X           Y           Z

     1         C         28.9697     17.9562     -0.0000
     2        Cr         30.1047     19.6069     -0.0000
     3         C         31.2397     21.2576     -0.0000
     4         C         30.1047     19.6069      2.0031
     5         C         30.1047     19.6069     -2.0033
     6         C         28.4541     20.7418     -0.0000
     7         C         31.7554     18.4720     -0.0000
     8         O         28.3143     17.0025      0.0001
     9         O         31.8951     22.2113      0.0001
    10         O         30.1047     19.6069      3.1604
    11         O         30.1047     19.6069     -3.1605
    12         O         27.5005     21.3975      0.0001
    13         O         32.7090     17.8165      0.0001

 General Reference for PM7:
 "Optimization of Parameters for Semiempirical Methods VI: More Modifications to the 
 NDDO Approximations and Re-optimization of Parameters", J. J. P. Stewart, J. Mol. Mod., 1:32, 19 (2013)
 https://link.springer.com/article/10.1007/s00894-012-1667-x

           Empirical Formula: C6 O6 Cr  =    13 atoms



      MOLECULAR POINT GROUP   :   Oh  


      RHF CALCULATION, NO. OF DOUBLY OCCUPIED LEVELS = 33



 ALL CONVERGERS ARE NOW FORCED ON
 SHIFT=10, PULAY ON, CAMP-KING ON
 AND ITERATION COUNTER RESET




          HEAT OF FORMATION =    -217.282919 KCALS/MOLE


          CARTESIAN COORDINATE DERIVATIVES

   NUMBER  ATOM         X            Y            Z

     1       C     -0.004875     0.007968     0.013367
     2      Cr      0.002669    -0.014118     0.002538
     3       C      0.007416     0.009800    -0.015358
     4       C     -0.004496    -0.002419     0.000380
     5       C      0.001733     0.002222    -0.000820
     6       C     -0.004061    -0.000100    -0.007488
     7       C     -0.000644     0.001821     0.008254
     8       O     -0.006400    -0.004072    -0.007105
     9       O      0.004374    -0.002123     0.008031
    10       O      0.000650     0.003167    -0.000730
    11       O      0.000246     0.000876    -0.000166
    12       O      0.001498    -0.002410    -0.005479
    13       O      0.001890    -0.000612     0.004578
 


          GRADIENT NORM =   0.03628


          TIME FOR SCF CALCULATION =    0.70

          TIME FOR DERIVATIVES     =    0.01

          MOLECULAR WEIGHT =  220.06



          ROTATIONAL CONSTANTS IN CM(-1)

          A =    0.02026199   B =    0.02026116   C =    0.02026068



           PRINCIPAL MOMENTS OF INERTIA IN UNITS OF 10**(-40)*GRAM-CM**2

          A =     1381.5404   B =     1381.5966   C =     1381.6291


          ORIENTATION OF MOLECULE IN FORCE CALCULATION

    NO.       ATOM         X         Y         Z

     1          C      -2.0032    0.0000   -0.0000
     2         Cr      -0.0000    0.0000   -0.0000
     3          C       2.0032    0.0001   -0.0000
     4          C      -0.0001   -1.9794    0.3078
     5          C       0.0000    1.9794   -0.3078
     6          C      -0.0000    0.3078    1.9794
     7          C       0.0001   -0.3079   -1.9793
     8          O      -3.1605   -0.0001   -0.0002
     9          O       3.1604    0.0001    0.0003
    10          O      -0.0001   -3.1229    0.4856
    11          O       0.0000    3.1229   -0.4857
    12          O      -0.0000    0.4855    3.1229
    13          O       0.0002   -0.4858   -3.1228


    FIRST DERIVATIVES WILL BE USED IN THE CALCULATION OF SECOND DERIVATIVES

          ESTIMATED TIME TO COMPLETE CALCULATION =      109.69 SECONDS

    FOR POINT-GROUP Oh   THERE ARE  48 UNIQUE SYMMETRY FUNCTIONS.



 ALL CONVERGERS ARE NOW FORCED ON
 SHIFT=10, PULAY ON, CAMP-KING ON
 AND ITERATION COUNTER RESET




 ALL CONVERGERS ARE NOW FORCED ON
 SHIFT=10, PULAY ON, CAMP-KING ON
 AND ITERATION COUNTER RESET




 ALL CONVERGERS ARE NOW FORCED ON
 SHIFT=10, PULAY ON, CAMP-KING ON
 AND ITERATION COUNTER RESET




 ALL CONVERGERS ARE NOW FORCED ON
 SHIFT=10, PULAY ON, CAMP-KING ON
 AND ITERATION COUNTER RESET




 ALL CONVERGERS ARE NOW FORCED ON
 SHIFT=10, PULAY ON, CAMP-KING ON
 AND ITERATION COUNTER RESET


 STEP:   1 TIME =     3.46 SECS, INTEGRAL =      3.46 TIME LEFT: 172795.84


 ALL CONVERGERS ARE NOW FORCED ON
 SHIFT=10, PULAY ON, CAMP-KING ON
 AND ITERATION COUNTER RESET




 ALL CONVERGERS ARE NOW FORCED ON
 SHIFT=10, PULAY ON, CAMP-KING ON
 AND ITERATION COUNTER RESET




 ALL CONVERGERS ARE NOW FORCED ON
 SHIFT=10, PULAY ON, CAMP-KING ON
 AND ITERATION COUNTER RESET




 ALL CONVERGERS ARE NOW FORCED ON
 SHIFT=10, PULAY ON, CAMP-KING ON
 AND ITERATION COUNTER RESET




 ALL CONVERGERS ARE NOW FORCED ON
 SHIFT=10, PULAY ON, CAMP-KING ON
 AND ITERATION COUNTER RESET


 STEP:   2 TIME =     3.55 SECS, INTEGRAL =      7.02 TIME LEFT: 172792.28


 ALL CONVERGERS ARE NOW FORCED ON
 SHIFT=10, PULAY ON, CAMP-KING ON
 AND ITERATION COUNTER RESET




 ALL CONVERGERS ARE NOW FORCED ON
 SHIFT=10, PULAY ON, CAMP-KING ON
 AND ITERATION COUNTER RESET




 ALL CONVERGERS ARE NOW FORCED ON
 SHIFT=10, PULAY ON, CAMP-KING ON
 AND ITERATION COUNTER RESET




 ALL CONVERGERS ARE NOW FORCED ON
 SHIFT=10, PULAY ON, CAMP-KING ON
 AND ITERATION COUNTER RESET


 STEP:   3 TIME =     2.86 SECS, INTEGRAL =      9.88 TIME LEFT: 172789.42


 ALL CONVERGERS ARE NOW FORCED ON
 SHIFT=10, PULAY ON, CAMP-KING ON
 AND ITERATION COUNTER RESET




 ALL CONVERGERS ARE NOW FORCED ON
 SHIFT=10, PULAY ON, CAMP-KING ON
 AND ITERATION COUNTER RESET




 ALL CONVERGERS ARE NOW FORCED ON
 SHIFT=10, PULAY ON, CAMP-KING ON
 AND ITERATION COUNTER RESET




 ALL CONVERGERS ARE NOW FORCED ON
 SHIFT=10, PULAY ON, CAMP-KING ON
 AND ITERATION COUNTER RESET




 ALL CONVERGERS ARE NOW FORCED ON
 SHIFT=10, PULAY ON, CAMP-KING ON
 AND ITERATION COUNTER RESET


 STEP:   4 TIME =     3.50 SECS, INTEGRAL =     13.38 TIME LEFT: 172785.92


 ALL CONVERGERS ARE NOW FORCED ON
 SHIFT=10, PULAY ON, CAMP-KING ON
 AND ITERATION COUNTER RESET




 ALL CONVERGERS ARE NOW FORCED ON
 SHIFT=10, PULAY ON, CAMP-KING ON
 AND ITERATION COUNTER RESET




 ALL CONVERGERS ARE NOW FORCED ON
 SHIFT=10, PULAY ON, CAMP-KING ON
 AND ITERATION COUNTER RESET




 ALL CONVERGERS ARE NOW FORCED ON
 SHIFT=10, PULAY ON, CAMP-KING ON
 AND ITERATION COUNTER RESET


 STEP:   5 TIME =     3.02 SECS, INTEGRAL =     16.39 TIME LEFT: 172782.91


 ALL CONVERGERS ARE NOW FORCED ON
 SHIFT=10, PULAY ON, CAMP-KING ON
 AND ITERATION COUNTER RESET




 ALL CONVERGERS ARE NOW FORCED ON
 SHIFT=10, PULAY ON, CAMP-KING ON
 AND ITERATION COUNTER RESET




 ALL CONVERGERS ARE NOW FORCED ON
 SHIFT=10, PULAY ON, CAMP-KING ON
 AND ITERATION COUNTER RESET




 ALL CONVERGERS ARE NOW FORCED ON
 SHIFT=10, PULAY ON, CAMP-KING ON
 AND ITERATION COUNTER RESET


 STEP:   6 TIME =     2.80 SECS, INTEGRAL =     19.20 TIME LEFT: 172780.10
 STEP:   7                       INTEGRAL =     19.20 TIME LEFT: 172780.10
 STEP:   8                       INTEGRAL =     19.20 TIME LEFT: 172780.10
 STEP:   9                       INTEGRAL =     19.20 TIME LEFT: 172780.10
 STEP:  10                       INTEGRAL =     19.20 TIME LEFT: 172780.10
 STEP:  11                       INTEGRAL =     19.20 TIME LEFT: 172780.10
 STEP:  12                       INTEGRAL =     19.20 TIME LEFT: 172780.10
 STEP:  13                       INTEGRAL =     19.20 TIME LEFT: 172780.10
 STEP:  14                       INTEGRAL =     19.20 TIME LEFT: 172780.10
 STEP:  15                       INTEGRAL =     19.20 TIME LEFT: 172780.10
 STEP:  16                       INTEGRAL =     19.20 TIME LEFT: 172780.10
 STEP:  17                       INTEGRAL =     19.20 TIME LEFT: 172780.10
 STEP:  18                       INTEGRAL =     19.20 TIME LEFT: 172780.10
 STEP:  19                       INTEGRAL =     19.20 TIME LEFT: 172780.10
 STEP:  20                       INTEGRAL =     19.20 TIME LEFT: 172780.10
 STEP:  21                       INTEGRAL =     19.20 TIME LEFT: 172780.10


 ALL CONVERGERS ARE NOW FORCED ON
 SHIFT=10, PULAY ON, CAMP-KING ON
 AND ITERATION COUNTER RESET




 ALL CONVERGERS ARE NOW FORCED ON
 SHIFT=10, PULAY ON, CAMP-KING ON
 AND ITERATION COUNTER RESET




 ALL CONVERGERS ARE NOW FORCED ON
 SHIFT=10, PULAY ON, CAMP-KING ON
 AND ITERATION COUNTER RESET




 ALL CONVERGERS ARE NOW FORCED ON
 SHIFT=10, PULAY ON, CAMP-KING ON
 AND ITERATION COUNTER RESET




 ALL CONVERGERS ARE NOW FORCED ON
 SHIFT=10, PULAY ON, CAMP-KING ON
 AND ITERATION COUNTER RESET


 STEP:  22 TIME =     3.51 SECS, INTEGRAL =     22.70 TIME LEFT: 172776.59


 ALL CONVERGERS ARE NOW FORCED ON
 SHIFT=10, PULAY ON, CAMP-KING ON
 AND ITERATION COUNTER RESET




 ALL CONVERGERS ARE NOW FORCED ON
 SHIFT=10, PULAY ON, CAMP-KING ON
 AND ITERATION COUNTER RESET




 ALL CONVERGERS ARE NOW FORCED ON
 SHIFT=10, PULAY ON, CAMP-KING ON
 AND ITERATION COUNTER RESET




 ALL CONVERGERS ARE NOW FORCED ON
 SHIFT=10, PULAY ON, CAMP-KING ON
 AND ITERATION COUNTER RESET




 ALL CONVERGERS ARE NOW FORCED ON
 SHIFT=10, PULAY ON, CAMP-KING ON
 AND ITERATION COUNTER RESET


 STEP:  23 TIME =     3.52 SECS, INTEGRAL =     26.22 TIME LEFT: 172773.08


 ALL CONVERGERS ARE NOW FORCED ON
 SHIFT=10, PULAY ON, CAMP-KING ON
 AND ITERATION COUNTER RESET




 ALL CONVERGERS ARE NOW FORCED ON
 SHIFT=10, PULAY ON, CAMP-KING ON
 AND ITERATION COUNTER RESET




 ALL CONVERGERS ARE NOW FORCED ON
 SHIFT=10, PULAY ON, CAMP-KING ON
 AND ITERATION COUNTER RESET




 ALL CONVERGERS ARE NOW FORCED ON
 SHIFT=10, PULAY ON, CAMP-KING ON
 AND ITERATION COUNTER RESET




 ALL CONVERGERS ARE NOW FORCED ON
 SHIFT=10, PULAY ON, CAMP-KING ON
 AND ITERATION COUNTER RESET


 STEP:  24 TIME =     3.51 SECS, INTEGRAL =     29.73 TIME LEFT: 172769.57
 STEP:  25                       INTEGRAL =     29.73 TIME LEFT: 172769.57
 STEP:  26                       INTEGRAL =     29.73 TIME LEFT: 172769.57
 STEP:  27                       INTEGRAL =     29.73 TIME LEFT: 172769.57
 STEP:  28                       INTEGRAL =     29.73 TIME LEFT: 172769.57
 STEP:  29                       INTEGRAL =     29.73 TIME LEFT: 172769.57
 STEP:  30                       INTEGRAL =     29.73 TIME LEFT: 172769.57
 STEP:  31                       INTEGRAL =     29.73 TIME LEFT: 172769.57
 STEP:  32                       INTEGRAL =     29.73 TIME LEFT: 172769.57
 STEP:  33                       INTEGRAL =     29.73 TIME LEFT: 172769.57
 STEP:  34                       INTEGRAL =     29.73 TIME LEFT: 172769.57
 STEP:  35                       INTEGRAL =     29.73 TIME LEFT: 172769.57
 STEP:  36                       INTEGRAL =     29.73 TIME LEFT: 172769.57
 STEP:  37                       INTEGRAL =     29.73 TIME LEFT: 172769.57
 STEP:  38                       INTEGRAL =     29.73 TIME LEFT: 172769.57
 STEP:  39                       INTEGRAL =     29.73 TIME LEFT: 172769.57

(To convert to Hartree/Bohr^2, multiply by (10^(-21) x N x a0^2)/(4.184 x 627.51) =  0.0642)


           FORCE MATRIX IN MILLIDYNES/ANGSTROM


                  C  1      Cr  2       C  3       C  4       C  5       C  6
 ------------------------------------------------------------------------------
     C    1  15.846438
    Cr    2   1.377086   8.277935
     C    3   1.087378   1.377089  15.846438
     C    4   0.343210   1.377126   0.343166  15.846438
     C    5   0.343166   1.377093   0.343210   1.087378  15.846438
     C    6   0.343216   1.377139   0.343216   0.343216   0.343216  15.846438
     C    7   0.343216   1.377138   0.343216   0.343216   0.343216   1.087378
     O    8  15.070991   1.107539   0.288484   0.175353   0.175338   0.175358
     O    9   0.288594   1.107617  15.071087   0.175557   0.175567   0.175560
     O   10   0.175567   1.107696   0.175557  15.071087   0.288594   0.175567
     O   11   0.175557   1.107589   0.175567   0.288594  15.071087   0.175557
     O   12   0.175560   1.107745   0.175584   0.175584   0.175560  15.071087
     O   13   0.175584   1.107742   0.175560   0.175560   0.175584   0.288594


                  C  7       O  8       O  9       O 10       O 11       O 12
 ------------------------------------------------------------------------------
     C    7  15.846438
     O    8   0.175359  16.016176
     O    9   0.175557   0.136077  16.016176
     O   10   0.175584   0.106891   0.106881  16.016176
     O   11   0.175560   0.106881   0.106891   0.136077  16.016176
     O   12   0.288594   0.106885   0.106897   0.106897   0.106885  16.016176
     O   13  15.071087   0.106897   0.106885   0.106885   0.106897   0.136077


                  O 13
 ------------------
     O   13  16.016176


          HEAT OF FORMATION =    -217.282919 KCALS/MOLE

          ZERO POINT ENERGY      28.715 KCAL/MOL


           NORMAL COORDINATE ANALYSIS (Total motion = 1 Angstrom)


   Root No.       1         2         3         4         5         6         7         8

                 1 T2u     1 T2u     1 T2u     1 T2g     1 T2g     1 T2g     1 T1u     1 T1u 

                  78.0      78.0      78.0      91.5      91.5      91.5     105.0     105.0
  
           1    0.0000    0.0000   -0.0000   -0.0000   -0.0000    0.0000   -0.0924    0.0019
           2   -0.0103    0.0663    0.0000   -0.0633    0.0091   -0.0000    0.0000   -0.0002
           3   -0.0663   -0.0103    0.0001    0.0091    0.0633   -0.0000   -0.0000    0.0001
           4   -0.0000    0.0000   -0.0000    0.0000    0.0000    0.0000   -0.0716    0.0014
           5    0.0000   -0.0000   -0.0000    0.0000   -0.0000    0.0000   -0.0014   -0.0639
           6    0.0000    0.0000    0.0000   -0.0000   -0.0000   -0.0000    0.0006    0.0259
           7    0.0000    0.0000   -0.0000    0.0000    0.0000   -0.0000   -0.0924    0.0019
           8   -0.0103    0.0663    0.0000    0.0633   -0.0091    0.0000   -0.0000   -0.0002
           9   -0.0663   -0.0103    0.0001   -0.0091   -0.0633    0.0000   -0.0000    0.0001
          10    0.0001   -0.0000    0.0671   -0.0639   -0.0007   -0.0000   -0.0002   -0.0000
          11    0.0103   -0.0000   -0.0000    0.0000    0.0000    0.0099   -0.0019   -0.0856
          12    0.0663   -0.0000   -0.0001   -0.0000    0.0000    0.0635    0.0003    0.0134
          13    0.0001   -0.0000    0.0671    0.0639    0.0007    0.0000   -0.0002    0.0000
          14    0.0103    0.0000   -0.0000   -0.0000   -0.0000   -0.0099   -0.0019   -0.0856
          15    0.0663    0.0000   -0.0001    0.0000   -0.0000   -0.0635    0.0003    0.0134
          16   -0.0001    0.0000   -0.0671    0.0007   -0.0639    0.0000   -0.0002    0.0000
          17    0.0000   -0.0663   -0.0000   -0.0000   -0.0000   -0.0635    0.0001    0.0029
          18   -0.0000    0.0103    0.0000    0.0000    0.0000    0.0099    0.0004    0.0202
          19   -0.0001    0.0000   -0.0671   -0.0007    0.0639   -0.0000   -0.0002    0.0000
          20   -0.0000   -0.0663   -0.0000    0.0000    0.0000    0.0635    0.0001    0.0029
          21    0.0000    0.0103   -0.0000   -0.0000   -0.0000   -0.0099    0.0004    0.0202
          22    0.0000    0.0000   -0.0000   -0.0000   -0.0000    0.0000   -0.0916    0.0018
          23   -0.0281    0.1807    0.0001   -0.1828    0.0264   -0.0000    0.0027    0.1239
          24   -0.1805   -0.0281    0.0004    0.0264    0.1828   -0.0000   -0.0011   -0.0503
          25    0.0000    0.0000   -0.0000    0.0000    0.0000   -0.0000   -0.0916    0.0018
          26   -0.0281    0.1807    0.0001    0.1828   -0.0264    0.0000    0.0027    0.1239
          27   -0.1805   -0.0281    0.0004   -0.0264   -0.1828    0.0000   -0.0011   -0.0503
          28    0.0004   -0.0000    0.1827   -0.1847   -0.0020   -0.0000    0.1388   -0.0028
          29    0.0281   -0.0000   -0.0001    0.0000    0.0000    0.0285   -0.0019   -0.0895
          30    0.1805   -0.0000   -0.0004   -0.0000    0.0000    0.1835   -0.0004   -0.0171
          31    0.0004   -0.0000    0.1827    0.1847    0.0020    0.0000    0.1388   -0.0028
          32    0.0281    0.0000   -0.0001   -0.0000   -0.0000   -0.0285   -0.0019   -0.0895
          33    0.1805    0.0000   -0.0004    0.0000   -0.0000   -0.1835   -0.0004   -0.0171
          34   -0.0004    0.0000   -0.1827    0.0020   -0.1847    0.0000    0.1388   -0.0028
          35    0.0000   -0.1807   -0.0000    0.0000   -0.0000   -0.1835    0.0028    0.1317
          36   -0.0000    0.0281    0.0000    0.0000   -0.0000    0.0285    0.0000    0.0000
          37   -0.0004    0.0000   -0.1827   -0.0020    0.1847   -0.0000    0.1388   -0.0028
          38   -0.0000   -0.1807   -0.0000   -0.0000    0.0000    0.1835    0.0028    0.1317
          39    0.0000    0.0281    0.0000    0.0000    0.0000   -0.0285    0.0000   -0.0000


   Root No.       9        10        11        12        13        14        15        16

                 1 T1u     1 T1g     1 T1g     1 T1g     2 T1u     2 T1u     2 T1u     1 Eg  

                 105.0     312.2     312.2     312.2     346.7     346.7     346.7     355.8
  
           1    0.0000   -0.0000   -0.0000    0.0000   -0.1235    0.0001   -0.0000   -0.1241
           2   -0.0001   -0.1661    0.0221   -0.0000    0.0001    0.0758    0.0088    0.0000
           3   -0.0002    0.0221    0.1661   -0.0000   -0.0000   -0.0088    0.0758   -0.0000
           4    0.0000    0.0000    0.0000   -0.0000    0.0949   -0.0001   -0.0000   -0.0000
           5   -0.0260   -0.0000    0.0000    0.0000    0.0001    0.0943    0.0109    0.0000
           6   -0.0641    0.0000    0.0000   -0.0000   -0.0000   -0.0109    0.0943   -0.0000
           7    0.0000    0.0000    0.0000   -0.0000   -0.1235    0.0001   -0.0000    0.1241
           8   -0.0001    0.1661   -0.0221    0.0000    0.0001    0.0758    0.0088   -0.0000
           9   -0.0002   -0.0221   -0.1661    0.0000   -0.0000   -0.0088    0.0758    0.0000
          10   -0.0000    0.1675    0.0037   -0.0000    0.0764   -0.0001   -0.0000    0.0000
          11   -0.0203   -0.0000    0.0000    0.0260   -0.0001   -0.1214    0.0165    0.0833
          12    0.0029    0.0000    0.0000    0.1674    0.0000    0.0219    0.0746   -0.0130
          13   -0.0000   -0.1675   -0.0037    0.0000    0.0764   -0.0001   -0.0000   -0.0000
          14   -0.0203    0.0000   -0.0000   -0.0260   -0.0001   -0.1214    0.0165   -0.0833
          15    0.0029   -0.0000   -0.0000   -0.1674    0.0000    0.0219    0.0746    0.0130
          16    0.0000   -0.0037    0.1675   -0.0000    0.0764   -0.0001    0.0000   -0.0000
          17   -0.0134    0.0000    0.0000    0.1674    0.0001    0.0746   -0.0219   -0.0061
          18   -0.0859   -0.0000   -0.0000   -0.0260   -0.0000   -0.0165   -0.1214   -0.0393
          19    0.0000    0.0037   -0.1675    0.0000    0.0764   -0.0001    0.0000    0.0000
          20   -0.0134   -0.0000   -0.0000   -0.1674    0.0001    0.0746   -0.0219    0.0061
          21   -0.0859    0.0000    0.0000    0.0260   -0.0000   -0.0165   -0.1214    0.0393
          22    0.0000    0.0000    0.0000   -0.0000   -0.1171    0.0001   -0.0000   -0.1259
          23    0.0505    0.0790   -0.0105    0.0000   -0.0000   -0.0294   -0.0034    0.0000
          24    0.1243   -0.0105   -0.0790    0.0000   -0.0000    0.0034   -0.0294   -0.0000
          25    0.0000   -0.0000   -0.0000    0.0000   -0.1171    0.0001   -0.0000    0.1259
          26    0.0505   -0.0790    0.0105   -0.0000   -0.0000   -0.0294   -0.0034   -0.0000
          27    0.1243    0.0105    0.0790   -0.0000   -0.0000    0.0034   -0.0294    0.0000
          28   -0.0000   -0.0797   -0.0018    0.0000   -0.0296    0.0000    0.0000    0.0000
          29    0.0000    0.0000   -0.0000   -0.0124   -0.0001   -0.1157    0.0000    0.0845
          30    0.1321   -0.0000   -0.0000   -0.0796    0.0000    0.0168   -0.0299   -0.0131
          31   -0.0000    0.0797    0.0018   -0.0000   -0.0296    0.0000    0.0000   -0.0000
          32   -0.0000   -0.0000    0.0000    0.0124   -0.0001   -0.1157   -0.0000   -0.0845
          33    0.1321    0.0000    0.0000    0.0796    0.0000    0.0168   -0.0299    0.0131
          34   -0.0000    0.0018   -0.0797    0.0000   -0.0296    0.0000    0.0000   -0.0000
          35    0.0172    0.0000   -0.0000   -0.0796   -0.0000   -0.0299   -0.0168   -0.0062
          36   -0.0899   -0.0000   -0.0000    0.0124   -0.0000    0.0000   -0.1157   -0.0399
          37   -0.0000   -0.0018    0.0797   -0.0000   -0.0296    0.0000    0.0000    0.0000
          38    0.0172   -0.0000    0.0000    0.0796   -0.0000   -0.0299   -0.0168    0.0062
          39   -0.0899   -0.0000    0.0000   -0.0124    0.0000    0.0000   -0.1157    0.0399


   Root No.      17        18        19        20        21        22        23        24

                 1 Eg      1 A1g     2 T2g     2 T2g     2 T2g     2 T2u     2 T2u     2 T2u 

                 355.8     385.0     404.1     404.1     404.1     488.6     488.6     488.6
  
           1   -0.0265   -0.0811    0.0000    0.0000   -0.0000    0.0000   -0.0000    0.0000
           2   -0.0000    0.0000    0.1932   -0.0218    0.0000   -0.0301   -0.1936    0.0000
           3   -0.0000   -0.0000   -0.0218   -0.1932    0.0000   -0.1936    0.0301    0.0000
           4   -0.0000   -0.0000   -0.0000   -0.0000    0.0000    0.0000   -0.0000   -0.0000
           5   -0.0000   -0.0000   -0.0000    0.0000   -0.0000    0.0000    0.0000   -0.0000
           6   -0.0000    0.0000    0.0000    0.0000    0.0000    0.0000   -0.0000    0.0000
           7    0.0265    0.0811   -0.0000   -0.0000    0.0000    0.0000   -0.0000    0.0000
           8    0.0000   -0.0000   -0.1932    0.0218   -0.0000   -0.0301   -0.1936    0.0000
           9    0.0000    0.0000    0.0218    0.1932   -0.0000   -0.1936    0.0301    0.0000
          10   -0.0000   -0.0000    0.1943    0.0081    0.0000    0.0000    0.0000    0.1960
          11   -0.0964   -0.0802   -0.0000   -0.0000   -0.0305    0.0301   -0.0000   -0.0000
          12    0.0150    0.0125    0.0000   -0.0000   -0.1961    0.1936   -0.0000   -0.0000
          13    0.0000    0.0000   -0.1943   -0.0081   -0.0000    0.0000    0.0000    0.1960
          14    0.0964    0.0802    0.0000    0.0000    0.0305    0.0301   -0.0000   -0.0000
          15   -0.0150   -0.0125   -0.0000    0.0000    0.1961    0.1936   -0.0000   -0.0000
          16    0.0000   -0.0000   -0.0081    0.1943   -0.0000   -0.0000   -0.0000   -0.1960
          17   -0.0191    0.0125   -0.0000    0.0000    0.1961    0.0000    0.1936   -0.0000
          18   -0.1226    0.0802    0.0000   -0.0000   -0.0305   -0.0000   -0.0301   -0.0000
          19   -0.0000    0.0000    0.0081   -0.1943    0.0000   -0.0000   -0.0000   -0.1960
          20    0.0191   -0.0125    0.0000   -0.0000   -0.1961    0.0000    0.1936   -0.0000
          21    0.1226   -0.0802   -0.0000    0.0000    0.0305   -0.0000   -0.0301   -0.0000
          22   -0.0269   -0.0855   -0.0000   -0.0000    0.0000   -0.0000    0.0000   -0.0000
          23   -0.0000   -0.0000   -0.0502    0.0057   -0.0000    0.0083    0.0534   -0.0000
          24   -0.0000   -0.0000    0.0057    0.0502   -0.0000    0.0534   -0.0083   -0.0000
          25    0.0269    0.0855    0.0000    0.0000   -0.0000   -0.0000    0.0000   -0.0000
          26    0.0000    0.0000    0.0502   -0.0057    0.0000    0.0083    0.0534   -0.0000
          27    0.0000    0.0000   -0.0057   -0.0502    0.0000    0.0534   -0.0083   -0.0000
          28   -0.0000    0.0000   -0.0505   -0.0021   -0.0000   -0.0000   -0.0000   -0.0540
          29   -0.0979   -0.0845    0.0000    0.0000    0.0079   -0.0083    0.0000    0.0000
          30    0.0152    0.0131   -0.0000    0.0000    0.0509   -0.0534    0.0000    0.0000
          31    0.0000   -0.0000    0.0505    0.0021    0.0000   -0.0000   -0.0000   -0.0540
          32    0.0979    0.0845   -0.0000   -0.0000   -0.0079   -0.0083    0.0000    0.0000
          33   -0.0152   -0.0131    0.0000   -0.0000   -0.0509   -0.0534    0.0000    0.0000
          34    0.0000   -0.0000    0.0021   -0.0505    0.0000    0.0000    0.0000    0.0540
          35   -0.0194    0.0131    0.0000   -0.0000   -0.0509   -0.0000   -0.0534    0.0000
          36   -0.1244    0.0845   -0.0000   -0.0000    0.0079    0.0000    0.0083   -0.0000
          37   -0.0000    0.0000   -0.0021    0.0505   -0.0000    0.0000    0.0000    0.0540
          38    0.0194   -0.0131   -0.0000    0.0000    0.0509   -0.0000   -0.0534    0.0000
          39    0.1244   -0.0845    0.0000    0.0000   -0.0079    0.0000    0.0083    0.0000


   Root No.      25        26        27        28        29        30        31        32

                 3 T1u     3 T1u     3 T1u     4 T1u     4 T1u     4 T1u     2 Eg      2 Eg  

                 592.3     592.3     592.3    1927.9    1927.9    1927.9    1958.1    1958.1
  
           1    0.0000   -0.0000   -0.0182    0.2742   -0.0016    0.0041   -0.1437   -0.0119
           2   -0.0440   -0.1560    0.0003   -0.0000   -0.0009   -0.0003    0.0000    0.0000
           3   -0.1560    0.0440   -0.0003    0.0000    0.0003   -0.0009   -0.0000   -0.0000
           4   -0.0001    0.0003    0.1179    0.0046   -0.0000    0.0001    0.0000    0.0000
           5    0.0315    0.1117   -0.0002    0.0000    0.0037    0.0013    0.0000    0.0000
           6    0.1117   -0.0315    0.0002   -0.0001   -0.0014    0.0037    0.0000    0.0000
           7    0.0000   -0.0000   -0.0182    0.2742   -0.0016    0.0041    0.1437    0.0119
           8   -0.0440   -0.1560    0.0003   -0.0000   -0.0009   -0.0003   -0.0000   -0.0000
           9   -0.1560    0.0440   -0.0003    0.0000    0.0003   -0.0009    0.0000    0.0000
          10    0.0002   -0.0004   -0.1647   -0.0011    0.0000   -0.0000    0.0000   -0.0000
          11   -0.0269   -0.0146    0.0000    0.0009    0.2298    0.0453    0.0802   -0.1303
          12   -0.1587    0.0220   -0.0002   -0.0001   -0.0356   -0.0080   -0.0125    0.0203
          13    0.0002   -0.0004   -0.1647   -0.0011    0.0000   -0.0000   -0.0000    0.0000
          14   -0.0269   -0.0146    0.0000    0.0009    0.2298    0.0453   -0.0802    0.1303
          15   -0.1587    0.0220   -0.0002   -0.0001   -0.0355   -0.0080    0.0125   -0.0203
          16    0.0002   -0.0004   -0.1647   -0.0011    0.0000   -0.0000    0.0000    0.0000
          17   -0.0220   -0.1587    0.0004   -0.0008   -0.0081    0.0352   -0.0096   -0.0221
          18   -0.0146    0.0269   -0.0001   -0.0049   -0.0457    0.2278   -0.0618   -0.1420
          19    0.0002   -0.0004   -0.1647   -0.0011    0.0000   -0.0000   -0.0000   -0.0000
          20   -0.0220   -0.1587    0.0004   -0.0008   -0.0081    0.0352    0.0096    0.0221
          21   -0.0146    0.0269   -0.0001   -0.0049   -0.0457    0.2278    0.0618    0.1420
          22    0.0000   -0.0000   -0.0121   -0.2123    0.0012   -0.0031    0.1063    0.0088
          23    0.0109    0.0385   -0.0001    0.0000    0.0003    0.0001   -0.0000    0.0000
          24    0.0385   -0.0109    0.0001   -0.0000   -0.0001    0.0003    0.0000    0.0000
          25    0.0000   -0.0000   -0.0121   -0.2123    0.0012   -0.0031   -0.1063   -0.0088
          26    0.0109    0.0385   -0.0001    0.0000    0.0003    0.0001    0.0000   -0.0000
          27    0.0385   -0.0109    0.0001   -0.0000   -0.0001    0.0003   -0.0000   -0.0000
          28   -0.0000    0.0001    0.0407    0.0004   -0.0000    0.0000   -0.0000    0.0000
          29    0.0047   -0.0124    0.0000   -0.0007   -0.1779   -0.0352   -0.0593    0.0964
          30    0.0395   -0.0029    0.0000    0.0001    0.0276    0.0058    0.0092   -0.0150
          31   -0.0000    0.0001    0.0407    0.0004   -0.0000    0.0000    0.0000   -0.0000
          32    0.0047   -0.0124    0.0000   -0.0007   -0.1779   -0.0352    0.0593   -0.0964
          33    0.0395   -0.0029    0.0000    0.0001    0.0276    0.0058   -0.0092    0.0150
          34   -0.0000    0.0001    0.0407    0.0004   -0.0000    0.0000    0.0000   -0.0000
          35    0.0029    0.0395   -0.0001    0.0006    0.0058   -0.0274    0.0071    0.0163
          36   -0.0124   -0.0047    0.0000    0.0038    0.0354   -0.1764    0.0457    0.1050
          37   -0.0000    0.0001    0.0407    0.0004   -0.0000    0.0000   -0.0000    0.0000
          38    0.0029    0.0395   -0.0001    0.0006    0.0058   -0.0274   -0.0071   -0.0163
          39   -0.0124   -0.0047    0.0000    0.0038    0.0354   -0.1764   -0.0457   -0.1050


   Root No.      33

                 2 A1g 

                2034.9
  
           1   -0.0973
           2    0.0000
           3   -0.0000
           4    0.0000
           5    0.0000
           6    0.0000
           7    0.0973
           8   -0.0000
           9    0.0000
          10   -0.0000
          11   -0.0962
          12    0.0150
          13    0.0000
          14    0.0962
          15   -0.0150
          16   -0.0000
          17    0.0150
          18    0.0962
          19    0.0000
          20   -0.0150
          21   -0.0962
          22    0.0693
          23   -0.0000
          24    0.0000
          25   -0.0693
          26    0.0000
          27   -0.0000
          28    0.0000
          29    0.0685
          30   -0.0107
          31   -0.0000
          32   -0.0685
          33    0.0107
          34    0.0000
          35   -0.0107
          36   -0.0685
          37   -0.0000
          38    0.0107
          39    0.0685


           MASS-WEIGHTED COORDINATE ANALYSIS (NORMAL COORDINATES)


   Root No.       1         2         3         4         5         6         7         8

                 1 T2u     1 T2u     1 T2u     1 T2g     1 T2g     1 T2g     1 T1u     1 T1u 

                  78.0      78.0      78.0      91.5      91.5      91.5     105.0     105.0
  
           1    0.0000    0.0000   -0.0000   -0.0000   -0.0000    0.0000   -0.2280    0.0000
           2   -0.0233    0.1498    0.0000   -0.1422    0.0204   -0.0000    0.0000   -0.0005
           3   -0.1498   -0.0233   -0.0001    0.0204    0.1422   -0.0000   -0.0000    0.0002
           4    0.0000    0.0000   -0.0000    0.0000    0.0000   -0.0000   -0.3675    0.0000
           5    0.0000   -0.0000    0.0000    0.0000   -0.0000    0.0000   -0.0000   -0.3405
           6    0.0000    0.0000   -0.0000   -0.0000   -0.0000   -0.0000   -0.0000    0.1383
           7    0.0000    0.0000   -0.0000    0.0000    0.0000   -0.0000   -0.2280    0.0000
           8   -0.0233    0.1498    0.0000    0.1422   -0.0204    0.0000    0.0000   -0.0005
           9   -0.1498   -0.0233   -0.0001   -0.0204   -0.1422    0.0000   -0.0000    0.0002
          10   -0.0001   -0.0000    0.1516   -0.1436   -0.0017   -0.0000   -0.0005   -0.0000
          11    0.0233   -0.0000    0.0000    0.0000    0.0000    0.0221   -0.0000   -0.2192
          12    0.1498   -0.0000    0.0001   -0.0000    0.0000    0.1419    0.0000    0.0342
          13   -0.0001   -0.0000    0.1516    0.1436    0.0017    0.0000   -0.0005   -0.0000
          14    0.0233    0.0000    0.0000   -0.0000   -0.0000   -0.0221   -0.0000   -0.2192
          15    0.1498    0.0000    0.0001    0.0000   -0.0000   -0.1419    0.0000    0.0342
          16    0.0001    0.0000   -0.1516    0.0017   -0.1436    0.0000   -0.0005   -0.0000
          17    0.0000   -0.1498   -0.0000   -0.0000   -0.0000   -0.1419   -0.0000    0.0075
          18   -0.0000    0.0233   -0.0000    0.0000    0.0000    0.0221   -0.0000    0.0518
          19    0.0001    0.0000   -0.1516   -0.0017    0.1436   -0.0000   -0.0005   -0.0000
          20   -0.0000   -0.1498   -0.0000    0.0000    0.0000    0.1419   -0.0000    0.0075
          21    0.0000    0.0233   -0.0000   -0.0000   -0.0000   -0.0221   -0.0000    0.0518
          22    0.0000    0.0000   -0.0000   -0.0000   -0.0000    0.0000   -0.2608    0.0001
          23   -0.0732    0.4708    0.0000   -0.4741    0.0681   -0.0000    0.0001    0.3662
          24   -0.4708   -0.0732   -0.0004    0.0681    0.4740   -0.0001   -0.0000   -0.1487
          25    0.0000    0.0000   -0.0000    0.0000    0.0000   -0.0000   -0.2608    0.0001
          26   -0.0732    0.4708    0.0000    0.4741   -0.0681    0.0000    0.0001    0.3662
          27   -0.4708   -0.0732   -0.0004   -0.0681   -0.4740    0.0001   -0.0000   -0.1487
          28   -0.0004   -0.0001    0.4765   -0.4789   -0.0055   -0.0000    0.3953   -0.0001
          29    0.0732   -0.0000    0.0001    0.0000    0.0000    0.0736   -0.0000   -0.2648
          30    0.4708   -0.0000    0.0004   -0.0000    0.0001    0.4732    0.0000   -0.0506
          31   -0.0004   -0.0001    0.4765    0.4789    0.0055    0.0000    0.3953   -0.0001
          32    0.0732    0.0000    0.0001   -0.0000   -0.0000   -0.0736   -0.0000   -0.2648
          33    0.4708    0.0000    0.0004    0.0000   -0.0001   -0.4732    0.0000   -0.0506
          34    0.0004    0.0001   -0.4765    0.0055   -0.4789    0.0001    0.3953   -0.0000
          35    0.0000   -0.4708   -0.0001    0.0000   -0.0001   -0.4732    0.0000    0.3893
          36   -0.0000    0.0732   -0.0000    0.0000   -0.0000    0.0736    0.0000    0.0000
          37    0.0004    0.0001   -0.4765   -0.0055    0.4789   -0.0001    0.3953   -0.0000
          38    0.0000   -0.4708   -0.0001   -0.0000    0.0001    0.4732    0.0000    0.3894
          39    0.0000    0.0732    0.0000    0.0000    0.0000   -0.0736    0.0000   -0.0000


   Root No.       9        10        11        12        13        14        15        16

                 1 T1u     1 T1g     1 T1g     1 T1g     2 T1u     2 T1u     2 T1u     1 Eg  

                 105.0     312.2     312.2     312.2     346.7     346.7     346.7     355.8
  
           1    0.0000   -0.0000   -0.0000    0.0000   -0.3372    0.0003   -0.0000   -0.3670
           2   -0.0002   -0.4342    0.0595   -0.0000    0.0002    0.2073    0.0239    0.0000
           3   -0.0005    0.0595    0.4342   -0.0001   -0.0000   -0.0239    0.2073   -0.0000
           4    0.0000    0.0000    0.0000   -0.0000    0.5395   -0.0005   -0.0000   -0.0000
           5   -0.1383   -0.0000    0.0000    0.0000    0.0005    0.5360    0.0619    0.0000
           6   -0.3405    0.0000    0.0000   -0.0000   -0.0000   -0.0619    0.5360   -0.0000
           7    0.0000    0.0000    0.0000   -0.0000   -0.3372    0.0003   -0.0000    0.3670
           8   -0.0002    0.4342   -0.0595    0.0000    0.0002    0.2073    0.0239   -0.0000
           9   -0.0005   -0.0595   -0.4342    0.0001   -0.0000   -0.0239    0.2073    0.0000
          10   -0.0000    0.4382    0.0079   -0.0000    0.2087   -0.0002   -0.0000    0.0000
          11   -0.0518   -0.0000    0.0000    0.0674   -0.0003   -0.3317    0.0451    0.2468
          12    0.0075    0.0000    0.0001    0.4331    0.0001    0.0599    0.2040   -0.0384
          13   -0.0000   -0.4382   -0.0079    0.0000    0.2087   -0.0002   -0.0000   -0.0000
          14   -0.0518    0.0000   -0.0000   -0.0674   -0.0003   -0.3317    0.0451   -0.2468
          15    0.0075   -0.0000   -0.0001   -0.4331    0.0001    0.0599    0.2040    0.0384
          16    0.0000   -0.0079    0.4382   -0.0001    0.2087   -0.0002    0.0000   -0.0000
          17   -0.0342    0.0000    0.0001    0.4331    0.0002    0.2040   -0.0599   -0.0180
          18   -0.2192   -0.0000   -0.0000   -0.0674   -0.0000   -0.0451   -0.3317   -0.1158
          19    0.0000    0.0079   -0.4382    0.0001    0.2087   -0.0002    0.0000    0.0000
          20   -0.0342   -0.0000   -0.0001   -0.4331    0.0002    0.2040   -0.0599    0.0180
          21   -0.2192    0.0000    0.0000    0.0674   -0.0000   -0.0451   -0.3317    0.1158
          22    0.0000    0.0000    0.0000   -0.0000   -0.3691    0.0003   -0.0000   -0.4298
          23    0.1487    0.2385   -0.0327    0.0000   -0.0001   -0.0927   -0.0107    0.0000
          24    0.3662   -0.0327   -0.2385    0.0001   -0.0000    0.0107   -0.0927   -0.0000
          25    0.0000   -0.0000   -0.0000    0.0000   -0.3691    0.0003   -0.0000    0.4298
          26    0.1487   -0.2385    0.0327   -0.0000   -0.0001   -0.0927   -0.0107   -0.0000
          27    0.3662    0.0327    0.2385   -0.0001   -0.0000    0.0107   -0.0927    0.0000
          28   -0.0000   -0.2406   -0.0043    0.0000   -0.0933    0.0001    0.0000    0.0000
          29    0.0000    0.0000   -0.0000   -0.0370   -0.0003   -0.3650    0.0000    0.2891
          30    0.3894   -0.0000   -0.0001   -0.2378    0.0000    0.0531   -0.0944   -0.0450
          31   -0.0000    0.2406    0.0043   -0.0000   -0.0933    0.0001    0.0000   -0.0000
          32   -0.0000   -0.0000    0.0000    0.0370   -0.0003   -0.3650   -0.0000   -0.2891
          33    0.3893    0.0000    0.0001    0.2378    0.0000    0.0531   -0.0944    0.0450
          34   -0.0000    0.0043   -0.2406    0.0000   -0.0933    0.0001    0.0000   -0.0000
          35    0.0506    0.0000   -0.0000   -0.2378   -0.0001   -0.0944   -0.0530   -0.0211
          36   -0.2648   -0.0000   -0.0000    0.0370   -0.0000    0.0000   -0.3650   -0.1357
          37   -0.0000   -0.0043    0.2406   -0.0000   -0.0933    0.0001    0.0000    0.0000
          38    0.0506   -0.0000    0.0000    0.2378   -0.0001   -0.0944   -0.0531    0.0211
          39   -0.2648   -0.0000    0.0000   -0.0370    0.0000    0.0000   -0.3650    0.1357


   Root No.      17        18        19        20        21        22        23        24

                 1 Eg      1 A1g     2 T2g     2 T2g     2 T2g     2 T2u     2 T2u     2 T2u 

                 355.8     385.0     404.1     404.1     404.1     488.6     488.6     488.6
  
           1   -0.0765   -0.2592    0.0000    0.0000   -0.0000    0.0000   -0.0000    0.0000
           2   -0.0000    0.0000    0.4758   -0.0548    0.0000   -0.0732   -0.4708    0.0001
           3   -0.0000   -0.0000   -0.0548   -0.4758    0.0001   -0.4708    0.0732   -0.0001
           4   -0.0000   -0.0000   -0.0000   -0.0000    0.0000    0.0000   -0.0000   -0.0000
           5   -0.0000   -0.0000   -0.0000    0.0000   -0.0000    0.0000    0.0000   -0.0000
           6   -0.0000    0.0000    0.0000    0.0000    0.0000    0.0000   -0.0000   -0.0000
           7    0.0765    0.2592   -0.0000   -0.0000    0.0000    0.0000   -0.0000    0.0000
           8    0.0000   -0.0000   -0.4758    0.0548   -0.0000   -0.0732   -0.4708    0.0001
           9    0.0000    0.0000    0.0548    0.4758   -0.0001   -0.4708    0.0732   -0.0001
          10   -0.0000   -0.0000    0.4785    0.0189    0.0000   -0.0001    0.0001    0.4765
          11   -0.2762   -0.2561   -0.0000   -0.0000   -0.0736    0.0732   -0.0000    0.0000
          12    0.0430    0.0398    0.0000   -0.0001   -0.4732    0.4708   -0.0000    0.0001
          13    0.0000    0.0000   -0.4785   -0.0189   -0.0000   -0.0001    0.0001    0.4765
          14    0.2762    0.2561    0.0000    0.0000    0.0736    0.0732   -0.0000    0.0000
          15   -0.0430   -0.0398   -0.0000    0.0001    0.4732    0.4708   -0.0000    0.0001
          16    0.0000   -0.0000   -0.0189    0.4786   -0.0001    0.0001   -0.0001   -0.4765
          17   -0.0547    0.0398   -0.0000    0.0001    0.4732    0.0000    0.4708   -0.0001
          18   -0.3519    0.2561    0.0000   -0.0000   -0.0736   -0.0000   -0.0732   -0.0000
          19   -0.0000    0.0000    0.0189   -0.4786    0.0001    0.0001   -0.0001   -0.4765
          20    0.0547   -0.0398    0.0000   -0.0001   -0.4732    0.0000    0.4708   -0.0001
          21    0.3519   -0.2561   -0.0000    0.0000    0.0736   -0.0000   -0.0732   -0.0000
          22   -0.0896   -0.3154   -0.0000   -0.0000    0.0000   -0.0000    0.0000   -0.0000
          23   -0.0000   -0.0000   -0.1427    0.0164   -0.0000    0.0233    0.1498   -0.0000
          24   -0.0000   -0.0000    0.0164    0.1427   -0.0000    0.1498   -0.0233    0.0000
          25    0.0896    0.3154    0.0000    0.0000   -0.0000   -0.0000    0.0000   -0.0000
          26    0.0000    0.0000    0.1427   -0.0164    0.0000    0.0233    0.1498   -0.0000
          27    0.0000    0.0000   -0.0164   -0.1427    0.0000    0.1498   -0.0233    0.0000
          28   -0.0000    0.0000   -0.1435   -0.0057   -0.0000    0.0000   -0.0000   -0.1516
          29   -0.3235   -0.3117    0.0000    0.0000    0.0221   -0.0233    0.0000   -0.0000
          30    0.0503    0.0485   -0.0000    0.0000    0.1419   -0.1498    0.0000   -0.0000
          31    0.0000   -0.0000    0.1435    0.0057    0.0000    0.0000   -0.0000   -0.1516
          32    0.3235    0.3117   -0.0000   -0.0000   -0.0221   -0.0233    0.0000   -0.0000
          33   -0.0503   -0.0485    0.0000   -0.0000   -0.1419   -0.1498    0.0000   -0.0000
          34    0.0000   -0.0000    0.0057   -0.1435    0.0000   -0.0000    0.0000    0.1516
          35   -0.0641    0.0485    0.0000   -0.0000   -0.1419   -0.0000   -0.1498    0.0000
          36   -0.4121    0.3117   -0.0000   -0.0000    0.0221    0.0000    0.0233    0.0000
          37   -0.0000    0.0000   -0.0057    0.1435   -0.0000   -0.0000    0.0000    0.1516
          38    0.0641   -0.0485   -0.0000    0.0000    0.1419   -0.0000   -0.1498    0.0000
          39    0.4121   -0.3117    0.0000    0.0000   -0.0221    0.0000    0.0233    0.0000


   Root No.      25        26        27        28        29        30        31        32

                 3 T1u     3 T1u     3 T1u     4 T1u     4 T1u     4 T1u     2 Eg      2 Eg  

                 592.3     592.3     592.3    1927.9    1927.9    1927.9    1958.1    1958.1
  
           1   -0.0001    0.0003   -0.0431    0.5270   -0.0033    0.0088   -0.4377   -0.0344
           2   -0.1037   -0.3756   -0.0027   -0.0000   -0.0020   -0.0007    0.0000    0.0000
           3   -0.3756    0.1037    0.0019    0.0001    0.0007   -0.0020   -0.0000   -0.0000
           4    0.0017   -0.0046    0.5807    0.0183   -0.0001    0.0003    0.0000    0.0000
           5    0.1546    0.5597    0.0039    0.0000    0.0173    0.0060    0.0000    0.0000
           6    0.5597   -0.1546   -0.0028   -0.0003   -0.0060    0.0173    0.0000    0.0000
           7   -0.0001    0.0003   -0.0431    0.5270   -0.0033    0.0088    0.4377    0.0344
           8   -0.1037   -0.3756   -0.0027   -0.0000   -0.0020   -0.0007   -0.0000   -0.0000
           9   -0.3756    0.1037    0.0019    0.0001    0.0007   -0.0020    0.0000    0.0000
          10   -0.0011    0.0031   -0.3897   -0.0021    0.0000   -0.0000    0.0000   -0.0000
          11   -0.0644   -0.0354   -0.0001    0.0016    0.5123    0.0942    0.2457   -0.3576
          12   -0.3818    0.0508    0.0015   -0.0002   -0.0793   -0.0168   -0.0382    0.0556
          13   -0.0011    0.0031   -0.3897   -0.0021    0.0000   -0.0000   -0.0000    0.0000
          14   -0.0644   -0.0354   -0.0001    0.0016    0.5123    0.0942   -0.2457    0.3576
          15   -0.3818    0.0508    0.0015   -0.0002   -0.0793   -0.0168    0.0382   -0.0556
          16   -0.0011    0.0031   -0.3897   -0.0021    0.0000   -0.0001    0.0000    0.0000
          17   -0.0508   -0.3818   -0.0029   -0.0014   -0.0168    0.0793   -0.0291   -0.0609
          18   -0.0354    0.0644    0.0006   -0.0092   -0.0942    0.5122   -0.1868   -0.3916
          19   -0.0011    0.0031   -0.3897   -0.0021    0.0000   -0.0000   -0.0000   -0.0000
          20   -0.0508   -0.3818   -0.0029   -0.0014   -0.0168    0.0793    0.0291    0.0609
          21   -0.0354    0.0644    0.0006   -0.0092   -0.0942    0.5122    0.1868    0.3916
          22   -0.0001    0.0003   -0.0330   -0.4711    0.0029   -0.0079    0.3737    0.0293
          23    0.0296    0.1071    0.0008    0.0000    0.0008    0.0003   -0.0000    0.0000
          24    0.1071   -0.0296   -0.0005   -0.0000   -0.0003    0.0008    0.0000    0.0000
          25   -0.0001    0.0003   -0.0330   -0.4711    0.0029   -0.0079   -0.3737   -0.0293
          26    0.0296    0.1071    0.0008    0.0000    0.0008    0.0003    0.0000   -0.0000
          27    0.1071   -0.0296   -0.0005   -0.0000   -0.0003    0.0008   -0.0000   -0.0000
          28    0.0003   -0.0009    0.1111    0.0008   -0.0000    0.0000   -0.0000    0.0000
          29    0.0132   -0.0344   -0.0003   -0.0014   -0.4578   -0.0844   -0.2098    0.3053
          30    0.1097   -0.0076   -0.0004    0.0002    0.0711    0.0139    0.0326   -0.0475
          31    0.0003   -0.0009    0.1111    0.0008   -0.0000    0.0000    0.0000   -0.0000
          32    0.0132   -0.0344   -0.0003   -0.0014   -0.4578   -0.0844    0.2098   -0.3053
          33    0.1097   -0.0076   -0.0004    0.0002    0.0711    0.0139   -0.0326    0.0475
          34    0.0003   -0.0009    0.1111    0.0008   -0.0000    0.0000    0.0000   -0.0000
          35    0.0076    0.1097    0.0008    0.0013    0.0139   -0.0710    0.0248    0.0520
          36   -0.0344   -0.0132   -0.0000    0.0082    0.0843   -0.4578    0.1595    0.3343
          37    0.0003   -0.0009    0.1111    0.0008   -0.0000    0.0000   -0.0000    0.0000
          38    0.0076    0.1097    0.0008    0.0013    0.0139   -0.0710   -0.0248   -0.0520
          39   -0.0344   -0.0132    0.0000    0.0082    0.0843   -0.4578   -0.1595   -0.3343


   Root No.      33

                 2 A1g 

                2034.9
  
           1   -0.3154
           2    0.0000
           3   -0.0000
           4    0.0000
           5    0.0000
           6    0.0000
           7    0.3154
           8   -0.0000
           9    0.0000
          10   -0.0000
          11   -0.3117
          12    0.0485
          13    0.0000
          14    0.3117
          15   -0.0485
          16   -0.0000
          17    0.0485
          18    0.3117
          19    0.0000
          20   -0.0485
          21   -0.3117
          22    0.2592
          23   -0.0000
          24    0.0000
          25   -0.2592
          26    0.0000
          27   -0.0000
          28    0.0000
          29    0.2561
          30   -0.0398
          31   -0.0000
          32   -0.2561
          33    0.0398
          34    0.0000
          35   -0.0398
          36   -0.2561
          37   -0.0000
          38    0.0398
          39    0.2561


          DESCRIPTION OF VIBRATIONS


 VIBRATION          3    1T2u         ATOM PAIR      ENERGY CONTRIBUTION    RADIAL
 FREQUENCY            77.96         Cr 2 -- C  4         +17.9% ( 80.0%)      0.0%
 TRANSITION DIPOLE   0.0000         Cr 2 -- C  7         +17.9% ( 80.0%)      0.0%
 TRAVEL (Ang.)       0.5101         Cr 2 -- C  6         +17.9% ( 80.0%)      0.0%
 REDUCED MASS        3.3238         Cr 2 -- C  5         +17.8% ( 80.0%)      0.0%
 EFFECTIVE MASS     16.5447
 FORCE CONSTANT      0.0119

 VIBRATION          6    1T2g         ATOM PAIR      ENERGY CONTRIBUTION    RADIAL
 FREQUENCY            91.54         Cr 2 -- C  7         +17.1% ( 64.5%)      0.0%
 TRANSITION DIPOLE   0.0000         Cr 2 -- C  6         +17.1% ( 64.5%)      0.0%
 TRAVEL (Ang.)       0.4663         Cr 2 -- C  5         +17.1% ( 64.5%)      0.0%
 REDUCED MASS        3.3873         Cr 2 -- C  4         +17.1% ( 64.5%)      0.0%
 EFFECTIVE MASS     16.0696
 FORCE CONSTANT      0.0167

 VIBRATION          9    1T1u         ATOM PAIR      ENERGY CONTRIBUTION    RADIAL
 FREQUENCY           105.04         Cr 2 -- C  6         +33.0% (345.4%)     72.2%
 TRANSITION DIPOLE   1.0628         Cr 2 -- C  7         +33.0% (345.4%)     72.2%
 TRAVEL (Ang.)       0.4883         Cr 2 -- C  4          +6.8% (157.0%)      0.8%
 REDUCED MASS        2.6924         Cr 2 -- C  5          +6.8% (157.0%)      0.8%
 EFFECTIVE MASS     44.0465
 FORCE CONSTANT      0.0175

 VIBRATION         12    1T1g         ATOM PAIR      ENERGY CONTRIBUTION    RADIAL
 FREQUENCY           312.23         C  6 -- O 12         +14.6% ( 68.4%)      0.0%
 TRANSITION DIPOLE   0.0000         C  7 -- O 13         +14.6% ( 68.4%)      0.0%
 TRAVEL (Ang.)       0.3297         C  4 -- O 10         +14.6% ( 68.4%)      0.0%
 REDUCED MASS        1.9872         C  5 -- O 11         +14.6% ( 68.4%)      0.0%
 EFFECTIVE MASS     12.8843         Cr 2 -- C  6         +10.4% ( 57.7%)      0.0%
 FORCE CONSTANT      0.1141         Cr 2 -- C  7         +10.4% ( 57.7%)      0.0%
                            Cr 2 -- C  4         +10.4% ( 57.7%)      0.0%
                            Cr 2 -- C  5         +10.4% ( 57.7%)      0.0%

 VIBRATION         15    2T1u         ATOM PAIR      ENERGY CONTRIBUTION    RADIAL
 FREQUENCY           346.69         Cr 2 -- C  6         +35.5% (156.9%)    100.0%
 TRANSITION DIPOLE   2.4200         Cr 2 -- C  7         +35.5% (156.9%)    100.0%
 TRAVEL (Ang.)       0.1897         Cr 2 -- C  5          +4.6% ( 56.5%)      1.1%
 REDUCED MASS        5.4049         Cr 2 -- C  4          +4.6% ( 56.5%)      1.1%
 EFFECTIVE MASS     27.8144
 FORCE CONSTANT      0.3827

 VIBRATION         17    1Eg          ATOM PAIR      ENERGY CONTRIBUTION    RADIAL
 FREQUENCY           355.78         Cr 2 -- C  7         +27.2% (149.3%)    100.0%
 TRANSITION DIPOLE   0.0000         Cr 2 -- C  6         +27.2% (149.3%)    100.0%
 TRAVEL (Ang.)       0.3182         Cr 2 -- C  5         +16.7% (117.2%)    100.0%
 REDUCED MASS        1.8718         Cr 2 -- C  4         +16.7% (117.2%)    100.0%
 EFFECTIVE MASS     16.3563
 FORCE CONSTANT      0.1396

 VIBRATION         18    1A1g         ATOM PAIR      ENERGY CONTRIBUTION    RADIAL
 FREQUENCY           385.00         Cr 2 -- C  7         +15.0% (100.5%)    100.0%
 TRANSITION DIPOLE   0.0000         Cr 2 -- C  6         +15.0% (100.5%)    100.0%
 TRAVEL (Ang.)       0.3706         Cr 2 -- C  5         +15.0% (100.5%)    100.0%
 REDUCED MASS        1.2753         Cr 2 -- C  4         +15.0% (100.5%)    100.0%
 EFFECTIVE MASS     16.2414         Cr 2 -- C  3         +15.0% (100.5%)    100.0%
 FORCE CONSTANT      0.1114         C  1 -- Cr 2         +15.0% (100.5%)    100.0%

 VIBRATION         21    2T2g         ATOM PAIR      ENERGY CONTRIBUTION    RADIAL
 FREQUENCY           404.05         C  6 -- O 12         +13.7% ( 53.6%)      0.0%
 TRANSITION DIPOLE   0.0000         C  7 -- O 13         +13.7% ( 53.6%)      0.0%
 TRAVEL (Ang.)       0.2556         C  4 -- O 10         +13.7% ( 53.6%)      0.0%
 REDUCED MASS        2.5548         C  5 -- O 11         +13.7% ( 53.6%)      0.0%
 EFFECTIVE MASS     12.3197         Cr 2 -- C  6         +11.3% ( 48.8%)      0.0%
 FORCE CONSTANT      0.2457         Cr 2 -- C  7         +11.3% ( 48.8%)      0.0%
                            Cr 2 -- C  4         +11.3% ( 48.8%)      0.0%
                            Cr 2 -- C  5         +11.3% ( 48.8%)      0.0%

 VIBRATION         24    2T2u         ATOM PAIR      ENERGY CONTRIBUTION    RADIAL
 FREQUENCY           488.61         C  4 -- O 10         +13.8% ( 44.4%)      0.0%
 TRANSITION DIPOLE   0.0000         C  7 -- O 13         +13.8% ( 44.4%)      0.0%
 TRAVEL (Ang.)       0.2345         C  6 -- O 12         +13.8% ( 44.4%)      0.0%
 REDUCED MASS        2.5100         C  5 -- O 11         +13.8% ( 44.4%)      0.0%
 EFFECTIVE MASS     12.3543         Cr 2 -- C  4         +11.2% ( 40.1%)      0.0%
 FORCE CONSTANT      0.3531         Cr 2 -- C  7         +11.2% ( 40.1%)      0.0%
                            Cr 2 -- C  6         +11.2% ( 40.1%)      0.0%
                            Cr 2 -- C  5         +11.2% ( 40.1%)      0.0%

 VIBRATION         27    3T1u         ATOM PAIR      ENERGY CONTRIBUTION    RADIAL
 FREQUENCY           592.26         Cr 2 -- C  7         +16.1% ( 55.5%)      0.0%
 TRANSITION DIPOLE   4.1022         Cr 2 -- C  6         +16.1% ( 55.5%)      0.0%
 TRAVEL (Ang.)       0.1273         Cr 2 -- C  4         +16.1% ( 55.5%)      0.0%
 REDUCED MASS        7.0303         Cr 2 -- C  5         +16.1% ( 55.5%)      0.0%
 EFFECTIVE MASS     23.1343
 FORCE CONSTANT      1.4530

 VIBRATION         30    4T1u         ATOM PAIR      ENERGY CONTRIBUTION    RADIAL
 FREQUENCY          1927.86         C  6 -- O 12         +36.5% ( 70.5%)    100.0%
 TRANSITION DIPOLE  12.9450         C  7 -- O 13         +36.5% ( 70.5%)    100.0%
 TRAVEL (Ang.)       0.1049         Cr 2 -- C  6         +11.8% ( 40.1%)    100.0%
 REDUCED MASS        3.2107         Cr 2 -- C  7         +11.8% ( 40.1%)    100.0%
 EFFECTIVE MASS     13.7223
 FORCE CONSTANT      7.0308

 VIBRATION         32    2Eg          ATOM PAIR      ENERGY CONTRIBUTION    RADIAL
 FREQUENCY          1958.07         C  7 -- O 13         +20.3% ( 52.0%)    100.0%
 TRANSITION DIPOLE   0.0000         C  6 -- O 12         +20.3% ( 52.0%)    100.0%
 TRAVEL (Ang.)       0.1417         C  5 -- O 11         +16.9% ( 47.5%)    100.0%
 REDUCED MASS        1.7155         C  4 -- O 10         +16.9% ( 47.5%)    100.0%
 EFFECTIVE MASS     13.6254
 FORCE CONSTANT      3.8753

 VIBRATION         33    2A1g         ATOM PAIR      ENERGY CONTRIBUTION    RADIAL
 FREQUENCY          2034.92         C  6 -- O 12         +12.4% ( 39.2%)    100.0%
 TRANSITION DIPOLE   0.0000         C  7 -- O 13         +12.4% ( 39.2%)    100.0%
 TRAVEL (Ang.)       0.1700         C  5 -- O 11         +12.4% ( 39.2%)    100.0%
 REDUCED MASS        1.1465         C  4 -- O 10         +12.4% ( 39.2%)    100.0%
 EFFECTIVE MASS     13.5526         C  3 -- O  9         +12.4% ( 39.2%)    100.0%
 FORCE CONSTANT      2.7972         C  1 -- O  8         +12.4% ( 39.2%)    100.0%

      SYMMETRY NUMBER FOR POINT-GROUP Oh  = 24


          SYSTEM IS A GROUND STATE



 Cr(CO)6


          MOLECULE IS NOT LINEAR

          THERE ARE 33 GENUINE VIBRATIONS IN THIS SYSTEM
          THIS THERMODYNAMICS CALCULATION IS LIMITED TO
          MOLECULES WHICH HAVE NO INTERNAL ROTATIONS




                    CALCULATED THERMODYNAMIC PROPERTIES
                                          *
   TEMP. (K)   PARTITION FUNCTION   H.O.F.    ENTHALPY  HEAT CAPACITY ENTROPY
                                   KCAL/MOL   CAL/MOLE    CAL/K/MOL  CAL/K/MOL


 298.00  VIB.     0.2000D+06                  7659.5494    43.3507    49.9596
         ROT.     0.7633D+05                   888.2803     2.9808    25.3226
         INT.     0.1527D+11                  8547.8297    46.3315    75.2822
         TRA.     0.3156D+28                  1480.4672     4.9680    42.0668
         TOT.                     -217.283   10028.2968    51.2995   117.3490

 200.00  VIB.     0.2319D+04                  3759.9526    35.2971    34.1980
         ROT.     0.4197D+05                   596.1613     2.9808    24.1339
         INT.     0.9730D+08                  4356.1139    38.2779    58.3319
         TRA.     0.1735D+28                   993.6021     4.9680    40.0857
         TOT.                     -221.962    5349.7160    43.2459    98.4176

 210.00  VIB.     0.3715D+04                  4118.5313    36.4052    35.9473
         ROT.     0.4515D+05                   625.9693     2.9808    24.2794
         INT.     0.1678D+09                  4744.5006    39.3860    60.2266
         TRA.     0.1867D+28                  1043.2822     4.9680    40.3281
         TOT.                     -221.523    5787.7828    44.3540   100.5547

 220.00  VIB.     0.5934D+04                  4487.7940    37.4347    37.6649
         ROT.     0.4842D+05                   655.7774     2.9808    24.4180
         INT.     0.2873D+09                  5143.5714    40.4155    62.0829
         TRA.     0.2002D+28                  1092.9623     4.9680    40.5592
         TOT.                     -221.075    6236.5338    45.3836   102.6421

 230.00  VIB.     0.9446D+04                  4866.9816    38.3910    39.3503
         ROT.     0.5176D+05                   685.5855     2.9808    24.5505
         INT.     0.4889D+09                  5552.5671    41.3718    63.9008
         TRA.     0.2140D+28                  1142.6424     4.9680    40.7800
         TOT.                     -220.616    6695.2095    46.3398   104.6809

 240.00  VIB.     0.1498D+05                  5255.3872    39.2792    41.0032
         ROT.     0.5517D+05                   715.3935     2.9808    24.6774
         INT.     0.8264D+09                  5970.7807    42.2600    65.6806
         TRA.     0.2281D+28                  1192.3226     4.9680    40.9915
         TOT.                     -220.148    7163.1033    47.2281   106.6721

 250.00  VIB.     0.2366D+05                  5652.3573    40.1048    42.6236
         ROT.     0.5865D+05                   745.2016     2.9808    24.7991
         INT.     0.1388D+10                  6397.5589    43.0856    67.4227
         TRA.     0.2425D+28                  1242.0027     4.9680    41.1943
         TOT.                     -219.672    7639.5616    48.0536   108.6169

 260.00  VIB.     0.3722D+05                  6057.2911    40.8728    44.2117
         ROT.     0.6221D+05                   775.0097     2.9808    24.9160
         INT.     0.2315D+10                  6832.3008    43.8536    69.1277
         TRA.     0.2572D+28                  1291.6828     4.9680    41.3891
         TOT.                     -219.187    8123.9835    48.8216   110.5168

 270.00  VIB.     0.5830D+05                  6469.6383    41.5883    45.7678
         ROT.     0.6583D+05                   804.8177     2.9808    25.0285
         INT.     0.3838D+10                  7274.4560    44.5691    70.7963
         TRA.     0.2722D+28                  1341.3629     4.9680    41.5766
         TOT.                     -218.695    8615.8189    49.5371   112.3729

 280.00  VIB.     0.9092D+05                  6888.8969    42.2559    47.2925
         ROT.     0.6952D+05                   834.6258     2.9808    25.1369
         INT.     0.6320D+10                  7723.5227    45.2367    72.4294
         TRA.     0.2874D+28                  1391.0430     4.9680    41.7573
         TOT.                     -218.197    9114.5657    50.2047   114.1867

 290.00  VIB.     0.1412D+06                  7314.6106    42.8800    48.7863
         ROT.     0.7328D+05                   864.4339     2.9808    25.2415
         INT.     0.1034D+11                  8179.0444    45.8608    74.0278
         TRA.     0.3030D+28                  1440.7231     4.9680    41.9316
         TOT.                     -217.691    9619.7675    50.8288   115.9594

 300.00  VIB.     0.2182D+06                  7746.3650    43.4647    50.2500
         ROT.     0.7710D+05                   894.2419     2.9808    25.3425
         INT.     0.1682D+11                  8640.6069    46.4455    75.5925
         TRA.     0.3188D+28                  1490.4032     4.9680    42.1000
         TOT.                     -217.180   10131.0101    51.4135   117.6926

 310.00  VIB.     0.3357D+06                  8183.7852    44.0137    51.6842
         ROT.     0.8099D+05                   924.0500     2.9808    25.4403
         INT.     0.2718D+11                  9107.8351    46.9945    77.1245
         TRA.     0.3348D+28                  1540.0833     4.9680    42.2629
         TOT.                     -216.663   10647.9184    51.9625   119.3874

 320.00  VIB.     0.5141D+06                  8626.5321    44.5306    53.0898
         ROT.     0.8494D+05                   953.8580     2.9808    25.5349
         INT.     0.4366D+11                  9580.3902    47.5114    78.6248
         TRA.     0.3512D+28                  1589.7634     4.9680    42.4207
         TOT.                     -216.141   11170.1536    52.4794   121.0454

 330.00  VIB.     0.7836D+06                  9074.2998    45.0184    54.4677
         ROT.     0.8895D+05                   983.6661     2.9808    25.6266
         INT.     0.6971D+11                 10057.9659    47.9992    80.0943
         TRA.     0.3678D+28                  1639.4435     4.9680    42.5735
         TOT.                     -215.614   11697.4094    52.9672   122.6678

 340.00  VIB.     0.1189D+07                  9526.8120    45.4799    55.8185
         ROT.     0.9302D+05                  1013.4742     2.9808    25.7156
         INT.     0.1106D+12                 10540.2861    48.4607    81.5341
         TRA.     0.3846D+28                  1689.1236     4.9680    42.7219
         TOT.                     -215.082   12229.4098    53.4287   124.2560

 350.00  VIB.     0.1796D+07                  9983.8196    45.9179    57.1432
         ROT.     0.9716D+05                  1043.2822     2.9808    25.8020
         INT.     0.1745D+12                 11027.1018    48.8987    82.9453
         TRA.     0.4017D+28                  1738.8037     4.9680    42.8659
         TOT.                     -214.545   12765.9055    53.8667   125.8111

 360.00  VIB.     0.2701D+07                 10445.0980    46.3345    58.4427
         ROT.     0.1014D+06                  1073.0903     2.9808    25.8860
         INT.     0.2737D+12                 11518.1883    49.3153    84.3287
         TRA.     0.4190D+28                  1788.4838     4.9680    43.0058
         TOT.                     -214.005   13306.6722    54.2833   127.3345

 370.00  VIB.     0.4042D+07                 10910.4447    46.7318    59.7176
         ROT.     0.1056D+06                  1102.8984     2.9808    25.9677
         INT.     0.4269D+12                 12013.3430    49.7126    85.6853
         TRA.     0.4366D+28                  1838.1639     4.9680    43.1419
         TOT.                     -213.460   13851.5070    54.6806   128.8273

 380.00  VIB.     0.6023D+07                 11379.6765    47.1118    60.9690
         ROT.     0.1099D+06                  1132.7064     2.9808    26.0472
         INT.     0.6620D+12                 12512.3830    50.0926    87.0161
         TRA.     0.4544D+28                  1887.8440     4.9680    43.2744
         TOT.                     -212.911   14400.2270    55.0606   130.2906

 390.00  VIB.     0.8935D+07                 11852.6283    47.4761    62.1975
         ROT.     0.1143D+06                  1162.5145     2.9808    26.1246
         INT.     0.1021D+13                 13015.1428    50.4569    88.3221
         TRA.     0.4725D+28                  1937.5242     4.9680    43.4035
         TOT.                     -212.359   14952.6669    55.4249   131.7255

 400.00  VIB.     0.1320D+08                 12329.1502    47.8261    63.4039
         ROT.     0.1187D+06                  1192.3226     2.9808    26.2001
         INT.     0.1566D+13                 13521.4728    50.8069    89.6040
         TRA.     0.4908D+28                  1987.2043     4.9680    43.5293
         TOT.                     -211.803   15508.6770    55.7749   133.1332

   *: NOTE: HEATS OF FORMATION ARE RELATIVE TO THE
            ELEMENTS IN THEIR STANDARD STATE AT 298K
              (=  Standard Enthalpy of Formation).

            Hvib:  Zero-point energy is not included.
                   frequencies of less than zero cm-1 are not included.
            Hrot = (3/2)RT
            Htra = (3/2)RT + pV = (5/2)RT

            Heat capacity is Cp, not Cv

          For more information, see: HTTP://OpenMOPAC.net/Manual/thermochemistry.html


           FORCE CONSTANT IN CARTESIAN COORDINATES (Millidynes/A)

    ATOM   CHEMICAL       X               Y               Z
   NUMBER   SYMBOL  FORCE CONSTANT  FORCE CONSTANT  FORCE CONSTANT

      1       C       15.755762        1.197434        1.197434
      2      Cr        4.779267        4.779267        4.779266
      3       C       15.755762        1.197434        1.197434
      4       C        1.197434       15.411905        1.541291
      5       C        1.197434       15.411905        1.541291
      6       C        1.197434        1.541291       15.411904
      7       C        1.197434        1.541291       15.411904
      8       O       16.012791        0.234793        0.234793
      9       O       16.012791        0.234793        0.234793
     10       O        0.234793       15.640126        0.607458
     11       O        0.234793       15.640126        0.607458
     12       O        0.234793        0.607458       15.640126
     13       O        0.234793        0.607458       15.640126

 **********************
 *                    *
 * JOB ENDED NORMALLY *
 *                    *
 **********************



 TOTAL JOB TIME:            73.15 SECONDS

 == MOPAC DONE ==
