

 Parallel Execution: Process Information
 ==============================================================================
 Rank   Node Name                              NodeID   MyNodeRank  NodeMaster
    0   ubuntu-kch                                0          0          0
    1   ubuntu-kch                                0          1         -1
    2   ubuntu-kch                                0          2         -1
    3   ubuntu-kch                                0          3         -1
 ==============================================================================


May use up to 7570MB of RAM as shared memory on node 0

 *******************************************************************************
 *                                                                             *
 *  --------------------------------                                           *
 *   Amsterdam Modeling Suite (AMS)              2020.202                      *
 *  --------------------------------                                           *
 *                                               r90167 2020-12-05             *
 *                                                                             *
 *                                                                             *
 *                              =================                              *
 *                              |               |                              *
 *                              |     A M S     |                              *
 *                              |               |                              *
 *                              =================                              *
 *                                                                             *
 *                                                                             *
 *   Online information and documentation:  https://www.scm.com/support/       *
 *   E-mail:  support@scm.com   info@scm.com                                   *
 *                                                                             *
 *   Scientific publications using AMS results must be properly referenced     *
 *   See the User Manuals (or the web site) for recommended citations          *
 *   The terms and conditions of the End User License Agreement apply to       *
 *   the use of AMS, https://www.scm.com/license-terms/                        *
 *                                                                             *
 **********************  x86_64_linux_intel / intelmpi  ************************
 
 Licensed to: Dr. Miroslav Ilias / Matej Bel University, Department Chemistry, Fac. Natural Sciences / Banska Bystrica / SLOVAKIA
 SCM User ID: u17848
  
 AMS 2020.202  RunTime: Jan28-2021 11:39:57  Nodes: 1  Procs: 4

 AMS jobname: ams
 AMS jobid  : 1383993199

 Start   directory: /home/milias/work/projects/open-collection/theoretical_chemistry/projects/nmr_diplomovky/reference_compounds/tetramethylsilane/ams/geom_optimiz/solvent/cosmo_h2o/tmp.milias.321216.0.noindex/
 Results directory: /home/milias/work/projects/open-collection/theoretical_chemistry/projects/nmr_diplomovky/reference_compounds/tetramethylsilane/ams/geom_optimiz/solvent/cosmo_h2o/TMS.geopt_freq_blyp_tz2p_cosmo-h2o.results/
 Scratch directory: /tmp/amstmp_ams_kid0.1383993199/


 Communication costs MPI_COMM_WORLD:      0.252 usec per message,   0.0033 usec per 8-byte item
 Communication costs for intra-node:      0.268 usec per message,   0.0033 usec per 8-byte item

 RNG seed: -1079238439 -1229163242 -217671002 1783450280 1598572737 -480907613 -1483284404 2132314153



                        ********************************************************************
                        *  ADF 2020.202  RunTime: Jan28-2021 11:39:57  Nodes: 1  Procs: 4  *
                        ********************************************************************
  
       ***************************
       *  GEOMETRY OPTIMIZATION  *
       ***************************

Optimization Method                    Quasi Newton
Optimization Coordinates               Delocalized Coordinates
Optimize lattice                       F
 
 ------------------------------------------------------
 Convergence criteria (Hartree,Angstrom)
 ------------------------------------------------------
 Maximum gradient               0.001000000000
 Maximum rms gradient           0.000666666667
 Maximum step allowed           0.010000000000
 Maximum rms step allowed       0.006666666667
 Maximum energy change allowe   0.000170000000
 Maximum stress energy allowe   0.000500000000
 
Initial model Hessian                  Automatic Hessian
 
------------------------------------
Quasi-Newton Optimizer Parameters
------------------------------------
Hessian Update Method                  BFGS
Maximum number of steps                  250
First GDIIS cycle                          0
Maximum GDIIS vectors                      0
Trust radius (bohr)                        0.200000
Trust radius varies                        T
Constraints converged at all steps         T
Use projector                              T
 
 Rigid motions settings for: old optimizer
 Atomic rotations (x,y,z):     T T T
 Atomic translations (x,y,z):  T T T
 Tolerance:                   1.000000000000000E-006
 
--------
Geometry
--------
Atoms
  Index Symbol   x (angstrom)   y (angstrom)   z (angstrom)
      1     Si    -0.00017510     0.00024027    -0.00143865       adf.R=2.10
      2      C    -0.93547743    -0.17545889    -1.64449158       adf.R=1.700
      3      C     0.89933778     1.67192175     0.04602104       adf.R=1.700
      4      C     1.26825978    -1.40468989     0.15633754       adf.R=1.700
      5      C    -1.23232583    -0.09136664     1.44055047       adf.R=1.700
      6      H    -1.46857244    -1.13511729    -1.69612828       adf.R=1.350
      7      H    -1.67739359     0.62586326    -1.76776709       adf.R=1.350
      8      H    -0.24753650    -0.12896790    -2.50015204       adf.R=1.350
      9      H     1.62421276     1.75840255    -0.77540442       adf.R=1.350
     10      H     0.19062040     2.50698886    -0.04409019       adf.R=1.350
     11      H     1.44735801     1.79969359     0.99005483       adf.R=1.350
     12      H     1.82853913    -1.33031496     1.09889345       adf.R=1.350
     13      H     0.77718108    -2.38758413     0.13686956       adf.R=1.350
     14      H     1.99522716    -1.37829572    -0.66726689       adf.R=1.350
     15      H    -0.71947535     0.00791077     2.40742177       adf.R=1.350
     16      H    -1.98045106     0.71099460     1.37564725       adf.R=1.350
     17      H    -1.76992882    -1.04992022     1.44464323       adf.R=1.350
 
Total System Charge             0.00000
Bonding info available!
 
 
----------------
ADF Engine Input
----------------
 
 Basis
 Type TZ2P
 Core None
 End
 XC
 GGA BLYP
 End
 Relativity
 Level None
 End
 Solvation
 Surf Delley
 Solv name=Water cav0=0.0 cav1=0.0067639
 Charged method=CONJ
 C-Mat POT
 SCF VAR ALL
 CSMRSP
 End
 

 Title: *** (NO TITLE) ***

 Using automatic Hessian for delocalized coordinates.
 *** GOStep1 ***

 SOLVATION
-------------------------------------------

  The Delley construction of COSMO surface surface is calculated

       Division Level for Surface Triangles (NDIV)                  3
       Final Division Level for Triangles (NFDIV)                   1
       Radius of the Solvent (RSOL)                           1.93000 angstr
  Dielectric Constant (EPSL)                                 78.39000

       COSMO equation is solved iteratively-               conjugate-gradient

       Maximun of Iterations for Charges (NCIX)                  1000
       Criterion for Charge convergence (CCNV)                1.0E-08

  COSMO charges included variationally in SCF

       COSMO included at every SCF cycle

  Geometry-dependent empirical factor                         0.00000

  C-Matrix calculated in cspmtx

  In cspmtx, C-Matrix calculated using fitted potential

-------------------------------------------



 -------------------------------------------
  COSMO surface
  Area             =          532.332
  Volume           =          937.183
  Number of Points =         1302
 -------------------------------------------
 cosmo_calcen: 0.5 (esolb+esolc) (Hartrees) =   -0.001608

 Solvation energy (screening term,uncorrected) =     -1.008856 kcal/mol

 Solvation energy (dispersion and cavitation terms) =      0.995419 kcal/mol
 Solvation Energy Contributions (Hartrees)
          esola   esolb+esolc
     0.00160771   -0.00321543
 esol last cycle   -0.00160771
 cosmo_calcen: 0.5 (esolb+esolc) (Hartrees) =   -0.001608

 Solvation energy (screening term,uncorrected) =     -1.008856 kcal/mol

 Solvation energy (dispersion and cavitation terms) =      0.995419 kcal/mol
 Solvation Energy Contributions (Hartrees)
          esola   esolb+esolc
     0.00160771   -0.00321543
 esol last cycle   -0.00160771

 Energy gradients wrt nuclear displacements
 ==========================================

     Atom      Cartesian (a.u./angstrom)
                 X         Y         Z
 ----------------------------------------
     1 Si    0.000045 -0.000084  0.000044
     2 C     0.000279  0.000069  0.000480
     3 C    -0.000277 -0.000514 -0.000015
     4 C    -0.000395  0.000441 -0.000072
     5 C     0.000355  0.000044 -0.000440
     6 H    -0.000048  0.000163 -0.000279
     7 H    -0.000034 -0.000182 -0.000269
     8 H    -0.000307 -0.000017 -0.000120
     9 H     0.000013  0.000287  0.000165
    10 H     0.000281  0.000133  0.000036
    11 H     0.000061  0.000271 -0.000162
    12 H     0.000121 -0.000262 -0.000157
    13 H     0.000315 -0.000047  0.000013
    14 H     0.000078 -0.000251  0.000198
    15 H    -0.000315 -0.000039  0.000053
    16 H    -0.000069 -0.000173  0.000280
    17 H    -0.000102  0.000161  0.000247
 ----------------------------------------
 Mulliken charges used for AMS results%charges...
 
----------------------------------------------------------------------
Geometry Convergence after Step   1       (Hartree/Angstrom,Angstrom)
----------------------------------------------------------------------
current energy                               -3.04683763 Hartree
energy change                      -3.04683763     0.00017000    F
constrained gradient max            0.00051410     0.00100000    T
constrained gradient rms            0.00022612     0.00066667    T
gradient max                        0.00051410
gradient rms                        0.00022612
cart. step max                      0.00106058     0.01000000    T
cart. step rms                      0.00049851     0.00666667    T
 
 
--------
Geometry
--------
Atoms
  Index Symbol   x (angstrom)   y (angstrom)   z (angstrom)
      1     Si    -0.00022911     0.00035286    -0.00148664       adf.R=2.10
      2      C    -0.93547657    -0.17549066    -1.64441547       adf.R=1.700
      3      C     0.89934004     1.67187764     0.04604512       adf.R=1.700
      4      C     1.26815386    -1.40449589     0.15630700       adf.R=1.700
      5      C    -1.23224444    -0.09144981     1.44046298       adf.R=1.700
      6      H    -1.46852231    -1.13529469    -1.69506770       adf.R=1.350
      7      H    -1.67699231     0.62636612    -1.76704739       adf.R=1.350
      8      H    -0.24677540    -0.12922744    -2.49954850       adf.R=1.350
      9      H     1.62417118     1.75743745    -0.77558091       adf.R=1.350
     10      H     0.19002507     2.50648072    -0.04424512       adf.R=1.350
     11      H     1.44696609     1.79879611     0.99047646       adf.R=1.350
     12      H     1.82805673    -1.32929355     1.09907768       adf.R=1.350
     13      H     0.77628955    -2.38706017     0.13688651       adf.R=1.350
     14      H     1.99467740    -1.37742244    -0.66774842       adf.R=1.350
     15      H    -0.71858117     0.00783896     2.40696846       adf.R=1.350
     16      H    -1.98006593     0.71120757     1.37486032       adf.R=1.350
     17      H    -1.76939267    -1.05032280     1.44375563       adf.R=1.350
 
Total System Charge             0.00000
Bonding info available!
 
 *** GOStep2 ***

 SOLVATION
-------------------------------------------

  The Delley construction of COSMO surface surface is calculated

       Division Level for Surface Triangles (NDIV)                  3
       Final Division Level for Triangles (NFDIV)                   1
       Radius of the Solvent (RSOL)                           1.93000 angstr
  Dielectric Constant (EPSL)                                 78.39000

       COSMO equation is solved iteratively-               conjugate-gradient

       Maximun of Iterations for Charges (NCIX)                  1000
       Criterion for Charge convergence (CCNV)                1.0E-08

  COSMO charges included variationally in SCF

       COSMO included at every SCF cycle

  Geometry-dependent empirical factor                         0.00000

  C-Matrix calculated in cspmtx

  In cspmtx, C-Matrix calculated using fitted potential

-------------------------------------------



 -------------------------------------------
  COSMO surface
  Area             =          532.347
  Volume           =          937.324
  Number of Points =         1301
 -------------------------------------------
 cosmo_calcen: 0.5 (esolb+esolc) (Hartrees) =   -0.001617

 Solvation energy (screening term,uncorrected) =     -1.014925 kcal/mol

 Solvation energy (dispersion and cavitation terms) =      0.995447 kcal/mol
 Solvation Energy Contributions (Hartrees)
          esola   esolb+esolc
     0.00161739   -0.00323477
 esol last cycle   -0.00161739
 cosmo_calcen: 0.5 (esolb+esolc) (Hartrees) =   -0.001617

 Solvation energy (screening term,uncorrected) =     -1.014925 kcal/mol

 Solvation energy (dispersion and cavitation terms) =      0.995447 kcal/mol
 Solvation Energy Contributions (Hartrees)
          esola   esolb+esolc
     0.00161739   -0.00323477
 esol last cycle   -0.00161739

 Energy gradients wrt nuclear displacements
 ==========================================

     Atom      Cartesian (a.u./angstrom)
                 X         Y         Z
 ----------------------------------------
     1 Si    0.000020 -0.000037  0.000021
     2 C     0.000174  0.000038  0.000305
     3 C    -0.000173 -0.000326 -0.000001
     4 C    -0.000264  0.000280 -0.000043
     5 C     0.000228  0.000020 -0.000281
     6 H    -0.000043  0.000034 -0.000137
     7 H    -0.000049 -0.000049 -0.000121
     8 H    -0.000108  0.000002 -0.000093
     9 H     0.000036  0.000140  0.000041
    10 H     0.000095  0.000091  0.000021
    11 H     0.000053  0.000131 -0.000032
    12 H     0.000080 -0.000119 -0.000034
    13 H     0.000132 -0.000057 -0.000000
    14 H     0.000066 -0.000108  0.000050
    15 H    -0.000118 -0.000019  0.000067
    16 H    -0.000059 -0.000050  0.000123
    17 H    -0.000069  0.000031  0.000113
 ----------------------------------------
 Mulliken charges used for AMS results%charges...

 dE(predicted):    -0.17584E-05, dE(actual):    -0.11228E-05, Trust radius:    0.200000, all in a.u.
 
---------------------------------------------------------
Geometry Convergence after Step   2       ** CONVERGED **
---------------------------------------------------------
current energy                               -3.04683876 Hartree
energy change                      -0.00000112     0.00017000    T
constrained gradient max            0.00032732     0.00100000    T
constrained gradient rms            0.00012410     0.00066667    T
gradient max                        0.00032732
gradient rms                        0.00012410
cart. step max                      0.00100178     0.01000000    T
cart. step rms                      0.00041059     0.00666667    T
 
Geometry optimization converged

Optimized geometry:
 
--------
Geometry
--------
Atoms
  Index Symbol   x (angstrom)   y (angstrom)   z (angstrom)
      1     Si    -0.00022911     0.00035286    -0.00148664       adf.R=2.10
      2      C    -0.93547657    -0.17549066    -1.64441547       adf.R=1.700
      3      C     0.89934004     1.67187764     0.04604512       adf.R=1.700
      4      C     1.26815386    -1.40449589     0.15630700       adf.R=1.700
      5      C    -1.23224444    -0.09144981     1.44046298       adf.R=1.700
      6      H    -1.46852231    -1.13529469    -1.69506770       adf.R=1.350
      7      H    -1.67699231     0.62636612    -1.76704739       adf.R=1.350
      8      H    -0.24677540    -0.12922744    -2.49954850       adf.R=1.350
      9      H     1.62417118     1.75743745    -0.77558091       adf.R=1.350
     10      H     0.19002507     2.50648072    -0.04424512       adf.R=1.350
     11      H     1.44696609     1.79879611     0.99047646       adf.R=1.350
     12      H     1.82805673    -1.32929355     1.09907768       adf.R=1.350
     13      H     0.77628955    -2.38706017     0.13688651       adf.R=1.350
     14      H     1.99467740    -1.37742244    -0.66774842       adf.R=1.350
     15      H    -0.71858117     0.00783896     2.40696846       adf.R=1.350
     16      H    -1.98006593     0.71120757     1.37486032       adf.R=1.350
     17      H    -1.76939267    -1.05032280     1.44375563       adf.R=1.350
 
Total System Charge             0.00000
Bonding info available!
 
Performing a single point calculation on the final geometry ...

 *** adf ***



 ===========================
 A T T A C H E D   F I L E S
 ===========================
  
 Restart/tmp/amstmp_ams_kid0.1383993199/GOStep2.rkf*** GOStep2 ***



 ===============================
 M O D E L   P A R A M E T E R S
 ===============================
  
 DENSITY FUNCTIONAL POTENTIAL (scf)
    LDA:                               Exchange only                           == Not Default ==
    Gradient Corrections:              Becke88 LYP                             == Not Default ==

 SPIN  (restricted / unrestr.)
    Molecule:                          Restricted                               
    Fragments:                         Restricted                               

 OTHER ASPECTS
    Relativistic Corrections:          ---                                     == Not Default ==

    Nuclear Charge Density Model:      Point Charge Nuclei                      
    Core Treatment:                    Frozen Orbital(s)                        

    Hyperfine or Zeeman Interaction:   ---                                      

 SOLVATION
-------------------------------------------

  The Delley construction of COSMO surface surface is calculated

       Division Level for Surface Triangles (NDIV)                  3
       Final Division Level for Triangles (NFDIV)                   1
       Radius of the Solvent (RSOL)                           1.93000 angstr
  Dielectric Constant (EPSL)                                 78.39000

       COSMO equation is solved iteratively-               conjugate-gradient

       Maximun of Iterations for Charges (NCIX)                  1000
       Criterion for Charge convergence (CCNV)                1.0E-08

  COSMO charges included variationally in SCF

       COSMO included at every SCF cycle

  Geometry-dependent empirical factor                         0.00000

  C-Matrix calculated in cspmtx

  In cspmtx, C-Matrix calculated using fitted potential

-------------------------------------------




 ===============
 G E O M E T R Y  ***  3D  Molecule  ***
 ===============
  

 ATOMS
 =====                            X Y Z                    CHARGE                     RADIUS
                                (Angstrom)             Nucl     +Core       At.Mass (Angstrom)
                       --------------------------    ----------------       ------- ----------
    1  Si             -0.0002    0.0004   -0.0015     14.00     14.00       27.9769    2.1000
    2  C              -0.9355   -0.1755   -1.6444      6.00      6.00       12.0000    1.7000
    3  C               0.8993    1.6719    0.0460      6.00      6.00       12.0000    1.7000
    4  C               1.2682   -1.4045    0.1563      6.00      6.00       12.0000    1.7000
    5  C              -1.2322   -0.0914    1.4405      6.00      6.00       12.0000    1.7000
    6  H              -1.4685   -1.1353   -1.6951      1.00      1.00        1.0078    1.3500
    7  H              -1.6770    0.6264   -1.7670      1.00      1.00        1.0078    1.3500
    8  H              -0.2468   -0.1292   -2.4995      1.00      1.00        1.0078    1.3500
    9  H               1.6242    1.7574   -0.7756      1.00      1.00        1.0078    1.3500
   10  H               0.1900    2.5065   -0.0442      1.00      1.00        1.0078    1.3500
   11  H               1.4470    1.7988    0.9905      1.00      1.00        1.0078    1.3500
   12  H               1.8281   -1.3293    1.0991      1.00      1.00        1.0078    1.3500
   13  H               0.7763   -2.3871    0.1369      1.00      1.00        1.0078    1.3500
   14  H               1.9947   -1.3774   -0.6677      1.00      1.00        1.0078    1.3500
   15  H              -0.7186    0.0078    2.4070      1.00      1.00        1.0078    1.3500
   16  H              -1.9801    0.7112    1.3749      1.00      1.00        1.0078    1.3500
   17  H              -1.7694   -1.0503    1.4438      1.00      1.00        1.0078    1.3500


 FRAGMENTS
 =========                                     Atoms in this Fragment     Cart. coord.s (Angstrom)
                                               -------------------------------------------------------
    1  Si                                                1  Si          -0.0002    0.0004   -0.0015
    2  C                                                 2  C           -0.9355   -0.1755   -1.6444
    3  C                                                 3  C            0.8993    1.6719    0.0460
    4  C                                                 4  C            1.2682   -1.4045    0.1563
    5  C                                                 5  C           -1.2322   -0.0914    1.4405
    6  H                                                 6  H           -1.4685   -1.1353   -1.6951
    7  H                                                 7  H           -1.6770    0.6264   -1.7670
    8  H                                                 8  H           -0.2468   -0.1292   -2.4995
    9  H                                                 9  H            1.6242    1.7574   -0.7756
   10  H                                                10  H            0.1900    2.5065   -0.0442
   11  H                                                11  H            1.4470    1.7988    0.9905
   12  H                                                12  H            1.8281   -1.3293    1.0991
   13  H                                                13  H            0.7763   -2.3871    0.1369
   14  H                                                14  H            1.9947   -1.3774   -0.6677
   15  H                                                15  H           -0.7186    0.0078    2.4070
   16  H                                                16  H           -1.9801    0.7112    1.3749
   17  H                                                17  H           -1.7694   -1.0503    1.4438


 Interatomic Distance Matrix (Angstrom)
 --------------------------------------

   1)     0.000
   2)     1.899   0.000
   3)     1.899   3.104   0.000
   4)     1.899   3.100   3.100   0.000
   5)     1.899   3.100   3.098   3.102   0.000
   6)     2.513   1.099   4.064   3.315   3.313   0.000
   7)     2.514   1.099   3.319   4.062   3.317   1.775   0.000
   8)     2.514   1.099   3.322   3.313   4.062   1.775   1.776   0.000
   9)     2.515   3.323   1.099   3.316   4.061   4.333   3.628   3.167   0.000
  10)     2.514   3.320   1.099   4.062   3.313   4.329   3.160   3.629   1.776   0.000
  11)     2.513   4.064   1.099   3.315   3.310   4.932   4.329   4.332   1.775   1.775
          0.000
  12)     2.514   4.061   3.313   1.099   3.319   4.326   4.932   4.324   3.617   4.325
          3.153   0.000
  13)     2.514   3.316   4.062   1.099   3.317   3.156   4.327   3.619   4.328   4.932
          4.324   1.775   0.000
  14)     2.514   3.314   3.318   1.099   4.063   3.620   4.325   3.152   3.159   4.328
          3.625   1.775   1.775   0.000
  15)     2.513   4.061   3.311   3.318   1.099   4.324   4.327   4.931   4.322   3.616
          3.147   3.160   3.623   4.328   0.000
  16)     2.514   3.316   3.314   4.063   1.099   3.619   3.158   4.327   4.325   3.154
          3.616   4.329   4.328   4.933   1.775   0.000
  17)     2.514   3.316   4.060   3.318   1.099   3.154   3.623   4.326   4.932   4.325
          4.321   3.625   3.158   4.328   1.775   1.775   0.000

 Min. Distance =    1.0989
 Max. Distance =    4.9329



 =====================================
 S Y M M E T R Y ,   E L E C T R O N S
 =====================================
  
 Symmetry: NOSYM

 Irreducible Representations, including subspecies
 -------------------------------------------------
 A


 Configuration of Valence Electrons
 ==================================
 ( determined in the SCF procedure )

 Total:   50

 Net Charge: 0 (Nuclei minus Electrons)

 Aufbau principle for MO occupations will be applied through SCF cycle no.     150
 Thereafter, the program will assign electrons to MOs that are spatially
 similar to the occupied MOs in a "reference" cycle ("KeepOrbitals").
 The reference cycle is always the PREVIOUS cycle: it will evolve with
 the SCF procedure.
1
 ***************************************************************************************************



                                      ****************************************
                                      *  B U I L D : (Fragments, Functions)  *
                                      ****************************************
  



 =======
 S F O s  ***  (Symmetrized Fragment Orbitals)  ***
 =======
  
 SFOs are linear combinations of (valence) Fragment Orbitals (FOs), such that the SFOs transform as the
 irreducible representations of the (molecular) symmetry group. Each SFO is therefore characterized by
 an irrep of the molecule and by a few (or only one) generating FOs.
 The SFOs constitute a symmetry-adapted basis for the Fock matrix. The MO eigenvector coefficients in
 this basis provide a direct interpretation of the MOs in terms of Frontier Orbital Theory.

 The SFOs are combined with auxiliary Core Functions (CFs) to ensure orthogonalization on the (frozen)
 Core Orbitals (COs). The Core-orthogonalized SFOs (CSFOs) constitute the true Fock basis.

 The FOs, and hence also the (C)SFOs are combinations of the elementary basis functions (BAS). The basis
 functions that participate in the description of the SFOs depend on the irrep. The indices of the
 involved functions are printed below for each irrep.
 (The complete list of primitive basis functions is printed in another section)

 Total nr. of (C)SFOs (summation over all irreps) :   270

 NOTE: a (C)SFO that is defined as a combination of more than one FO is usually NOT normalized.



                                       === A ===
 Nr. of SFOs :  270
 Cartesian basis functions that participate in this irrep (total number =   302) :
      1     2     3     4    11    12    13     5     8    14
     17    20     6     9    15    18    21     7    10    16
     19    22    23    24    25    26    27    28    29    30
     31    32    33    34    35    36    37    38    39    40
     41    42    43    44    47    50    45    48    51    46
     49    52    53    54    55    56    57    58    59    60
     61    62    63    64    65    66    67    68    69    70
     71    72    73    74    77    80    75    78    81    76
     79    82    83    84    85    86    87    88    89    90
     91    92    93    94    95    96    97    98    99   100
    101   102   103   104   107   110   105   108   111   106
    109   112   113   114   115   116   117   118   119   120
    121   122   123   124   125   126   127   128   129   130
    131   132   133   134   137   140   135   138   141   136
    139   142   143   144   145   146   147   148   149   150
    151   152   153   154   155   156   157   158   159   160
    161   162   163   164   165   166   167   168   169   170
    171   172   173   174   175   176   177   178   179   180
    181   182   183   184   185   186   187   188   189   190
    191   192   193   194   195   196   197   198   199   200
    201   202   203   204   205   206   207   208   209   210
    211   212   213   214   215   216   217   218   219   220
    221   222   223   224   225   226   227   228   229   230
    231   232   233   234   235   236   237   238   239   240
    241   242   243   244   245   246   247   248   249   250
    251   252   253   254   255   256   257   258   259   260
    261   262   263   264   265   266   267   268   269   270
    271   272   273   274   275   276   277   278   279   280
    281   282   283   284   285   286   287   288   289   290
    291   292   293   294   295   296   297   298   299   300
    301   302

    SFO  (index         Fragment          Generating    Expansion in Fragment Orbitals
  indx  incl.CFs)   Occup   Orb.Energy   FragmentType  Coeff.   Orbital     on Fragment
 --------------------------------------------------------------------------------------
     1       1      2.000     -65.507 au  Si            1.00      1 S               1
                        (   -1782.534 eV)
     2       2      2.000      -5.093 au  Si            1.00      2 S               1
                        (    -138.593 eV)
     3       3      2.000      -0.391 au  Si            1.00      3 S               1
                        (     -10.641 eV)
     4       4       --         0.128 au  Si            1.00      4 S               1
                        (       3.470 eV)
     5       5       --         1.507 au  Si            1.00      5 S               1
                        (      40.998 eV)
     6       6       --         9.481 au  Si            1.00      6 S               1
                        (     257.986 eV)
     7       7       --       150.257 au  Si            1.00      7 S               1
                        (    4088.710 eV)
     8       8      2.000      -3.508 au  Si            1.00      1 P:x             1
                        (     -95.456 eV)
     9       9      0.667      -0.145 au  Si            1.00      2 P:x             1
                        (      -3.936 eV)
    10      10       --         0.067 au  Si            1.00      3 P:x             1
                        (       1.821 eV)
    11      11       --         0.686 au  Si            1.00      4 P:x             1
                        (      18.654 eV)
    12      12       --         8.293 au  Si            1.00      5 P:x             1
                        (     225.656 eV)
    13      13      2.000      -3.508 au  Si            1.00      1 P:y             1
                        (     -95.456 eV)
    14      14      0.667      -0.145 au  Si            1.00      2 P:y             1
                        (      -3.936 eV)
    15      15       --         0.067 au  Si            1.00      3 P:y             1
                        (       1.821 eV)
    16      16       --         0.686 au  Si            1.00      4 P:y             1
                        (      18.654 eV)
    17      17       --         8.293 au  Si            1.00      5 P:y             1
                        (     225.656 eV)
    18      18      2.000      -3.508 au  Si            1.00      1 P:z             1
                        (     -95.456 eV)
    19      19      0.667      -0.145 au  Si            1.00      2 P:z             1
                        (      -3.936 eV)
    20      20       --         0.067 au  Si            1.00      3 P:z             1
                        (       1.821 eV)
    21      21       --         0.686 au  Si            1.00      4 P:z             1
                        (      18.654 eV)
    22      22       --         8.293 au  Si            1.00      5 P:z             1
                        (     225.656 eV)
    23      23       --         0.371 au  Si            1.00      1 D:z2            1
                        (      10.085 eV)
    24      24       --         0.371 au  Si            1.00      1 D:x2-y2         1
                        (      10.085 eV)
    25      25       --         0.371 au  Si            1.00      1 D:xy            1
                        (      10.085 eV)
    26      26       --         0.371 au  Si            1.00      1 D:xz            1
                        (      10.085 eV)
    27      27       --         0.371 au  Si            1.00      1 D:yz            1
                        (      10.085 eV)
    28      28       --         1.060 au  Si            1.00      1 F:z3            1
                        (      28.834 eV)
    29      29       --         1.060 au  Si            1.00      1 F:z             1
                        (      28.834 eV)
    30      30       --         1.060 au  Si            1.00      1 F:xyz           1
                        (      28.834 eV)
    31      31       --         1.060 au  Si            1.00      1 F:z2x           1
                        (      28.834 eV)
    32      32       --         1.060 au  Si            1.00      1 F:z2y           1
                        (      28.834 eV)
    33      33       --         1.060 au  Si            1.00      1 F:x             1
                        (      28.834 eV)
    34      34       --         1.060 au  Si            1.00      1 F:y             1
                        (      28.834 eV)
    35      35      2.000     -10.063 au  C             1.00      1 S               2
                        (    -273.823 eV)
    36      36      2.000      -0.500 au  C             1.00      2 S               2
                        (     -13.609 eV)
    37      37       --         0.374 au  C             1.00      3 S               2
                        (      10.173 eV)
    38      38       --         5.411 au  C             1.00      4 S               2
                        (     147.253 eV)
    39      39       --        50.155 au  C             1.00      5 S               2
                        (    1364.777 eV)
    40      40      0.667      -0.193 au  C             1.00      1 P:x             2
                        (      -5.243 eV)
    41      41       --         0.169 au  C             1.00      2 P:x             2
                        (       4.588 eV)
    42      42       --         2.015 au  C             1.00      3 P:x             2
                        (      54.822 eV)
    43      43      0.667      -0.193 au  C             1.00      1 P:y             2
                        (      -5.243 eV)
    44      44       --         0.169 au  C             1.00      2 P:y             2
                        (       4.588 eV)
    45      45       --         2.015 au  C             1.00      3 P:y             2
                        (      54.822 eV)
    46      46      0.667      -0.193 au  C             1.00      1 P:z             2
                        (      -5.243 eV)
    47      47       --         0.169 au  C             1.00      2 P:z             2
                        (       4.588 eV)
    48      48       --         2.015 au  C             1.00      3 P:z             2
                        (      54.822 eV)
    49      49       --         1.243 au  C             1.00      1 D:z2            2
                        (      33.823 eV)
    50      50       --         1.243 au  C             1.00      1 D:x2-y2         2
                        (      33.823 eV)
    51      51       --         1.243 au  C             1.00      1 D:xy            2
                        (      33.823 eV)
    52      52       --         1.243 au  C             1.00      1 D:xz            2
                        (      33.823 eV)
    53      53       --         1.243 au  C             1.00      1 D:yz            2
                        (      33.823 eV)
    54      54       --         4.016 au  C             1.00      1 F:z3            2
                        (     109.288 eV)
    55      55       --         4.016 au  C             1.00      1 F:z             2
                        (     109.288 eV)
    56      56       --         4.016 au  C             1.00      1 F:xyz           2
                        (     109.288 eV)
    57      57       --         4.016 au  C             1.00      1 F:z2x           2
                        (     109.288 eV)
    58      58       --         4.016 au  C             1.00      1 F:z2y           2
                        (     109.288 eV)
    59      59       --         4.016 au  C             1.00      1 F:x             2
                        (     109.288 eV)
    60      60       --         4.016 au  C             1.00      1 F:y             2
                        (     109.288 eV)
    61      61      2.000     -10.063 au  C             1.00      1 S               3
                        (    -273.823 eV)
    62      62      2.000      -0.500 au  C             1.00      2 S               3
                        (     -13.609 eV)
    63      63       --         0.374 au  C             1.00      3 S               3
                        (      10.173 eV)
    64      64       --         5.411 au  C             1.00      4 S               3
                        (     147.253 eV)
    65      65       --        50.155 au  C             1.00      5 S               3
                        (    1364.777 eV)
    66      66      0.667      -0.193 au  C             1.00      1 P:x             3
                        (      -5.243 eV)
    67      67       --         0.169 au  C             1.00      2 P:x             3
                        (       4.588 eV)
    68      68       --         2.015 au  C             1.00      3 P:x             3
                        (      54.822 eV)
    69      69      0.667      -0.193 au  C             1.00      1 P:y             3
                        (      -5.243 eV)
    70      70       --         0.169 au  C             1.00      2 P:y             3
                        (       4.588 eV)
    71      71       --         2.015 au  C             1.00      3 P:y             3
                        (      54.822 eV)
    72      72      0.667      -0.193 au  C             1.00      1 P:z             3
                        (      -5.243 eV)
    73      73       --         0.169 au  C             1.00      2 P:z             3
                        (       4.588 eV)
    74      74       --         2.015 au  C             1.00      3 P:z             3
                        (      54.822 eV)
    75      75       --         1.243 au  C             1.00      1 D:z2            3
                        (      33.823 eV)
    76      76       --         1.243 au  C             1.00      1 D:x2-y2         3
                        (      33.823 eV)
    77      77       --         1.243 au  C             1.00      1 D:xy            3
                        (      33.823 eV)
    78      78       --         1.243 au  C             1.00      1 D:xz            3
                        (      33.823 eV)
    79      79       --         1.243 au  C             1.00      1 D:yz            3
                        (      33.823 eV)
    80      80       --         4.016 au  C             1.00      1 F:z3            3
                        (     109.288 eV)
    81      81       --         4.016 au  C             1.00      1 F:z             3
                        (     109.288 eV)
    82      82       --         4.016 au  C             1.00      1 F:xyz           3
                        (     109.288 eV)
    83      83       --         4.016 au  C             1.00      1 F:z2x           3
                        (     109.288 eV)
    84      84       --         4.016 au  C             1.00      1 F:z2y           3
                        (     109.288 eV)
    85      85       --         4.016 au  C             1.00      1 F:x             3
                        (     109.288 eV)
    86      86       --         4.016 au  C             1.00      1 F:y             3
                        (     109.288 eV)
    87      87      2.000     -10.063 au  C             1.00      1 S               4
                        (    -273.823 eV)
    88      88      2.000      -0.500 au  C             1.00      2 S               4
                        (     -13.609 eV)
    89      89       --         0.374 au  C             1.00      3 S               4
                        (      10.173 eV)
    90      90       --         5.411 au  C             1.00      4 S               4
                        (     147.253 eV)
    91      91       --        50.155 au  C             1.00      5 S               4
                        (    1364.777 eV)
    92      92      0.667      -0.193 au  C             1.00      1 P:x             4
                        (      -5.243 eV)
    93      93       --         0.169 au  C             1.00      2 P:x             4
                        (       4.588 eV)
    94      94       --         2.015 au  C             1.00      3 P:x             4
                        (      54.822 eV)
    95      95      0.667      -0.193 au  C             1.00      1 P:y             4
                        (      -5.243 eV)
    96      96       --         0.169 au  C             1.00      2 P:y             4
                        (       4.588 eV)
    97      97       --         2.015 au  C             1.00      3 P:y             4
                        (      54.822 eV)
    98      98      0.667      -0.193 au  C             1.00      1 P:z             4
                        (      -5.243 eV)
    99      99       --         0.169 au  C             1.00      2 P:z             4
                        (       4.588 eV)
   100     100       --         2.015 au  C             1.00      3 P:z             4
                        (      54.822 eV)
   101     101       --         1.243 au  C             1.00      1 D:z2            4
                        (      33.823 eV)
   102     102       --         1.243 au  C             1.00      1 D:x2-y2         4
                        (      33.823 eV)
   103     103       --         1.243 au  C             1.00      1 D:xy            4
                        (      33.823 eV)
   104     104       --         1.243 au  C             1.00      1 D:xz            4
                        (      33.823 eV)
   105     105       --         1.243 au  C             1.00      1 D:yz            4
                        (      33.823 eV)
   106     106       --         4.016 au  C             1.00      1 F:z3            4
                        (     109.288 eV)
   107     107       --         4.016 au  C             1.00      1 F:z             4
                        (     109.288 eV)
   108     108       --         4.016 au  C             1.00      1 F:xyz           4
                        (     109.288 eV)
   109     109       --         4.016 au  C             1.00      1 F:z2x           4
                        (     109.288 eV)
   110     110       --         4.016 au  C             1.00      1 F:z2y           4
                        (     109.288 eV)
   111     111       --         4.016 au  C             1.00      1 F:x             4
                        (     109.288 eV)
   112     112       --         4.016 au  C             1.00      1 F:y             4
                        (     109.288 eV)
   113     113      2.000     -10.063 au  C             1.00      1 S               5
                        (    -273.823 eV)
   114     114      2.000      -0.500 au  C             1.00      2 S               5
                        (     -13.609 eV)
   115     115       --         0.374 au  C             1.00      3 S               5
                        (      10.173 eV)
   116     116       --         5.411 au  C             1.00      4 S               5
                        (     147.253 eV)
   117     117       --        50.155 au  C             1.00      5 S               5
                        (    1364.777 eV)
   118     118      0.667      -0.193 au  C             1.00      1 P:x             5
                        (      -5.243 eV)
   119     119       --         0.169 au  C             1.00      2 P:x             5
                        (       4.588 eV)
   120     120       --         2.015 au  C             1.00      3 P:x             5
                        (      54.822 eV)
   121     121      0.667      -0.193 au  C             1.00      1 P:y             5
                        (      -5.243 eV)
   122     122       --         0.169 au  C             1.00      2 P:y             5
                        (       4.588 eV)
   123     123       --         2.015 au  C             1.00      3 P:y             5
                        (      54.822 eV)
   124     124      0.667      -0.193 au  C             1.00      1 P:z             5
                        (      -5.243 eV)
   125     125       --         0.169 au  C             1.00      2 P:z             5
                        (       4.588 eV)
   126     126       --         2.015 au  C             1.00      3 P:z             5
                        (      54.822 eV)
   127     127       --         1.243 au  C             1.00      1 D:z2            5
                        (      33.823 eV)
   128     128       --         1.243 au  C             1.00      1 D:x2-y2         5
                        (      33.823 eV)
   129     129       --         1.243 au  C             1.00      1 D:xy            5
                        (      33.823 eV)
   130     130       --         1.243 au  C             1.00      1 D:xz            5
                        (      33.823 eV)
   131     131       --         1.243 au  C             1.00      1 D:yz            5
                        (      33.823 eV)
   132     132       --         4.016 au  C             1.00      1 F:z3            5
                        (     109.288 eV)
   133     133       --         4.016 au  C             1.00      1 F:z             5
                        (     109.288 eV)
   134     134       --         4.016 au  C             1.00      1 F:xyz           5
                        (     109.288 eV)
   135     135       --         4.016 au  C             1.00      1 F:z2x           5
                        (     109.288 eV)
   136     136       --         4.016 au  C             1.00      1 F:z2y           5
                        (     109.288 eV)
   137     137       --         4.016 au  C             1.00      1 F:x             5
                        (     109.288 eV)
   138     138       --         4.016 au  C             1.00      1 F:y             5
                        (     109.288 eV)
   139     139      1.000      -0.240 au  H             1.00      1 S               6
                        (      -6.532 eV)
   140     140       --         0.088 au  H             1.00      2 S               6
                        (       2.394 eV)
   141     141       --         1.502 au  H             1.00      3 S               6
                        (      40.877 eV)
   142     142       --         0.406 au  H             1.00      1 P:x             6
                        (      11.052 eV)
   143     143       --         0.406 au  H             1.00      1 P:y             6
                        (      11.052 eV)
   144     144       --         0.406 au  H             1.00      1 P:z             6
                        (      11.052 eV)
   145     145       --         2.570 au  H             1.00      1 D:z2            6
                        (      69.925 eV)
   146     146       --         2.570 au  H             1.00      1 D:x2-y2         6
                        (      69.925 eV)
   147     147       --         2.570 au  H             1.00      1 D:xy            6
                        (      69.925 eV)
   148     148       --         2.570 au  H             1.00      1 D:xz            6
                        (      69.925 eV)
   149     149       --         2.570 au  H             1.00      1 D:yz            6
                        (      69.925 eV)
   150     150      1.000      -0.240 au  H             1.00      1 S               7
                        (      -6.532 eV)
   151     151       --         0.088 au  H             1.00      2 S               7
                        (       2.394 eV)
   152     152       --         1.502 au  H             1.00      3 S               7
                        (      40.877 eV)
   153     153       --         0.406 au  H             1.00      1 P:x             7
                        (      11.052 eV)
   154     154       --         0.406 au  H             1.00      1 P:y             7
                        (      11.052 eV)
   155     155       --         0.406 au  H             1.00      1 P:z             7
                        (      11.052 eV)
   156     156       --         2.570 au  H             1.00      1 D:z2            7
                        (      69.925 eV)
   157     157       --         2.570 au  H             1.00      1 D:x2-y2         7
                        (      69.925 eV)
   158     158       --         2.570 au  H             1.00      1 D:xy            7
                        (      69.925 eV)
   159     159       --         2.570 au  H             1.00      1 D:xz            7
                        (      69.925 eV)
   160     160       --         2.570 au  H             1.00      1 D:yz            7
                        (      69.925 eV)
   161     161      1.000      -0.240 au  H             1.00      1 S               8
                        (      -6.532 eV)
   162     162       --         0.088 au  H             1.00      2 S               8
                        (       2.394 eV)
   163     163       --         1.502 au  H             1.00      3 S               8
                        (      40.877 eV)
   164     164       --         0.406 au  H             1.00      1 P:x             8
                        (      11.052 eV)
   165     165       --         0.406 au  H             1.00      1 P:y             8
                        (      11.052 eV)
   166     166       --         0.406 au  H             1.00      1 P:z             8
                        (      11.052 eV)
   167     167       --         2.570 au  H             1.00      1 D:z2            8
                        (      69.925 eV)
   168     168       --         2.570 au  H             1.00      1 D:x2-y2         8
                        (      69.925 eV)
   169     169       --         2.570 au  H             1.00      1 D:xy            8
                        (      69.925 eV)
   170     170       --         2.570 au  H             1.00      1 D:xz            8
                        (      69.925 eV)
   171     171       --         2.570 au  H             1.00      1 D:yz            8
                        (      69.925 eV)
   172     172      1.000      -0.240 au  H             1.00      1 S               9
                        (      -6.532 eV)
   173     173       --         0.088 au  H             1.00      2 S               9
                        (       2.394 eV)
   174     174       --         1.502 au  H             1.00      3 S               9
                        (      40.877 eV)
   175     175       --         0.406 au  H             1.00      1 P:x             9
                        (      11.052 eV)
   176     176       --         0.406 au  H             1.00      1 P:y             9
                        (      11.052 eV)
   177     177       --         0.406 au  H             1.00      1 P:z             9
                        (      11.052 eV)
   178     178       --         2.570 au  H             1.00      1 D:z2            9
                        (      69.925 eV)
   179     179       --         2.570 au  H             1.00      1 D:x2-y2         9
                        (      69.925 eV)
   180     180       --         2.570 au  H             1.00      1 D:xy            9
                        (      69.925 eV)
   181     181       --         2.570 au  H             1.00      1 D:xz            9
                        (      69.925 eV)
   182     182       --         2.570 au  H             1.00      1 D:yz            9
                        (      69.925 eV)
   183     183      1.000      -0.240 au  H             1.00      1 S              10
                        (      -6.532 eV)
   184     184       --         0.088 au  H             1.00      2 S              10
                        (       2.394 eV)
   185     185       --         1.502 au  H             1.00      3 S              10
                        (      40.877 eV)
   186     186       --         0.406 au  H             1.00      1 P:x            10
                        (      11.052 eV)
   187     187       --         0.406 au  H             1.00      1 P:y            10
                        (      11.052 eV)
   188     188       --         0.406 au  H             1.00      1 P:z            10
                        (      11.052 eV)
   189     189       --         2.570 au  H             1.00      1 D:z2           10
                        (      69.925 eV)
   190     190       --         2.570 au  H             1.00      1 D:x2-y2        10
                        (      69.925 eV)
   191     191       --         2.570 au  H             1.00      1 D:xy           10
                        (      69.925 eV)
   192     192       --         2.570 au  H             1.00      1 D:xz           10
                        (      69.925 eV)
   193     193       --         2.570 au  H             1.00      1 D:yz           10
                        (      69.925 eV)
   194     194      1.000      -0.240 au  H             1.00      1 S              11
                        (      -6.532 eV)
   195     195       --         0.088 au  H             1.00      2 S              11
                        (       2.394 eV)
   196     196       --         1.502 au  H             1.00      3 S              11
                        (      40.877 eV)
   197     197       --         0.406 au  H             1.00      1 P:x            11
                        (      11.052 eV)
   198     198       --         0.406 au  H             1.00      1 P:y            11
                        (      11.052 eV)
   199     199       --         0.406 au  H             1.00      1 P:z            11
                        (      11.052 eV)
   200     200       --         2.570 au  H             1.00      1 D:z2           11
                        (      69.925 eV)
   201     201       --         2.570 au  H             1.00      1 D:x2-y2        11
                        (      69.925 eV)
   202     202       --         2.570 au  H             1.00      1 D:xy           11
                        (      69.925 eV)
   203     203       --         2.570 au  H             1.00      1 D:xz           11
                        (      69.925 eV)
   204     204       --         2.570 au  H             1.00      1 D:yz           11
                        (      69.925 eV)
   205     205      1.000      -0.240 au  H             1.00      1 S              12
                        (      -6.532 eV)
   206     206       --         0.088 au  H             1.00      2 S              12
                        (       2.394 eV)
   207     207       --         1.502 au  H             1.00      3 S              12
                        (      40.877 eV)
   208     208       --         0.406 au  H             1.00      1 P:x            12
                        (      11.052 eV)
   209     209       --         0.406 au  H             1.00      1 P:y            12
                        (      11.052 eV)
   210     210       --         0.406 au  H             1.00      1 P:z            12
                        (      11.052 eV)
   211     211       --         2.570 au  H             1.00      1 D:z2           12
                        (      69.925 eV)
   212     212       --         2.570 au  H             1.00      1 D:x2-y2        12
                        (      69.925 eV)
   213     213       --         2.570 au  H             1.00      1 D:xy           12
                        (      69.925 eV)
   214     214       --         2.570 au  H             1.00      1 D:xz           12
                        (      69.925 eV)
   215     215       --         2.570 au  H             1.00      1 D:yz           12
                        (      69.925 eV)
   216     216      1.000      -0.240 au  H             1.00      1 S              13
                        (      -6.532 eV)
   217     217       --         0.088 au  H             1.00      2 S              13
                        (       2.394 eV)
   218     218       --         1.502 au  H             1.00      3 S              13
                        (      40.877 eV)
   219     219       --         0.406 au  H             1.00      1 P:x            13
                        (      11.052 eV)
   220     220       --         0.406 au  H             1.00      1 P:y            13
                        (      11.052 eV)
   221     221       --         0.406 au  H             1.00      1 P:z            13
                        (      11.052 eV)
   222     222       --         2.570 au  H             1.00      1 D:z2           13
                        (      69.925 eV)
   223     223       --         2.570 au  H             1.00      1 D:x2-y2        13
                        (      69.925 eV)
   224     224       --         2.570 au  H             1.00      1 D:xy           13
                        (      69.925 eV)
   225     225       --         2.570 au  H             1.00      1 D:xz           13
                        (      69.925 eV)
   226     226       --         2.570 au  H             1.00      1 D:yz           13
                        (      69.925 eV)
   227     227      1.000      -0.240 au  H             1.00      1 S              14
                        (      -6.532 eV)
   228     228       --         0.088 au  H             1.00      2 S              14
                        (       2.394 eV)
   229     229       --         1.502 au  H             1.00      3 S              14
                        (      40.877 eV)
   230     230       --         0.406 au  H             1.00      1 P:x            14
                        (      11.052 eV)
   231     231       --         0.406 au  H             1.00      1 P:y            14
                        (      11.052 eV)
   232     232       --         0.406 au  H             1.00      1 P:z            14
                        (      11.052 eV)
   233     233       --         2.570 au  H             1.00      1 D:z2           14
                        (      69.925 eV)
   234     234       --         2.570 au  H             1.00      1 D:x2-y2        14
                        (      69.925 eV)
   235     235       --         2.570 au  H             1.00      1 D:xy           14
                        (      69.925 eV)
   236     236       --         2.570 au  H             1.00      1 D:xz           14
                        (      69.925 eV)
   237     237       --         2.570 au  H             1.00      1 D:yz           14
                        (      69.925 eV)
   238     238      1.000      -0.240 au  H             1.00      1 S              15
                        (      -6.532 eV)
   239     239       --         0.088 au  H             1.00      2 S              15
                        (       2.394 eV)
   240     240       --         1.502 au  H             1.00      3 S              15
                        (      40.877 eV)
   241     241       --         0.406 au  H             1.00      1 P:x            15
                        (      11.052 eV)
   242     242       --         0.406 au  H             1.00      1 P:y            15
                        (      11.052 eV)
   243     243       --         0.406 au  H             1.00      1 P:z            15
                        (      11.052 eV)
   244     244       --         2.570 au  H             1.00      1 D:z2           15
                        (      69.925 eV)
   245     245       --         2.570 au  H             1.00      1 D:x2-y2        15
                        (      69.925 eV)
   246     246       --         2.570 au  H             1.00      1 D:xy           15
                        (      69.925 eV)
   247     247       --         2.570 au  H             1.00      1 D:xz           15
                        (      69.925 eV)
   248     248       --         2.570 au  H             1.00      1 D:yz           15
                        (      69.925 eV)
   249     249      1.000      -0.240 au  H             1.00      1 S              16
                        (      -6.532 eV)
   250     250       --         0.088 au  H             1.00      2 S              16
                        (       2.394 eV)
   251     251       --         1.502 au  H             1.00      3 S              16
                        (      40.877 eV)
   252     252       --         0.406 au  H             1.00      1 P:x            16
                        (      11.052 eV)
   253     253       --         0.406 au  H             1.00      1 P:y            16
                        (      11.052 eV)
   254     254       --         0.406 au  H             1.00      1 P:z            16
                        (      11.052 eV)
   255     255       --         2.570 au  H             1.00      1 D:z2           16
                        (      69.925 eV)
   256     256       --         2.570 au  H             1.00      1 D:x2-y2        16
                        (      69.925 eV)
   257     257       --         2.570 au  H             1.00      1 D:xy           16
                        (      69.925 eV)
   258     258       --         2.570 au  H             1.00      1 D:xz           16
                        (      69.925 eV)
   259     259       --         2.570 au  H             1.00      1 D:yz           16
                        (      69.925 eV)
   260     260      1.000      -0.240 au  H             1.00      1 S              17
                        (      -6.532 eV)
   261     261       --         0.088 au  H             1.00      2 S              17
                        (       2.394 eV)
   262     262       --         1.502 au  H             1.00      3 S              17
                        (      40.877 eV)
   263     263       --         0.406 au  H             1.00      1 P:x            17
                        (      11.052 eV)
   264     264       --         0.406 au  H             1.00      1 P:y            17
                        (      11.052 eV)
   265     265       --         0.406 au  H             1.00      1 P:z            17
                        (      11.052 eV)
   266     266       --         2.570 au  H             1.00      1 D:z2           17
                        (      69.925 eV)
   267     267       --         2.570 au  H             1.00      1 D:x2-y2        17
                        (      69.925 eV)
   268     268       --         2.570 au  H             1.00      1 D:xy           17
                        (      69.925 eV)
   269     269       --         2.570 au  H             1.00      1 D:xz           17
                        (      69.925 eV)
   270     270       --         2.570 au  H             1.00      1 D:yz           17
                        (      69.925 eV)



 ================================
 (Slater-type)  F U N C T I O N S  ***  (Basis and Fit)  ***
 ================================
  

 Atom Type    1  (Si)
 ==============

 Valence Basis Sets:  14
 -----------------------
   1 S   17.050000
   1 S   12.450000
   2 S    5.150000
   2 S    3.600000
   2 P    6.850000
   2 P    3.650000
   3 S    2.950000
   3 S    1.850000
   3 S    1.200000
   3 P    2.000000
   3 P    1.200000
   3 P    0.750000
   3 D    1.750000
   4 F    1.900000

 Atom Type    2  (C)
 ==============

 Valence Basis Sets:  10
 -----------------------
   1 S    7.680000
   1 S    5.000000
   2 S    1.280000
   2 S    2.100000
   2 S    4.600000
   2 P    0.820000
   2 P    1.480000
   2 P    2.940000
   3 D    2.200000
   4 F    3.300000

 Atom Type    3  (H)
 ==============

 Valence Basis Sets:   5
 -----------------------
   1 S    0.690000
   1 S    0.920000
   1 S    1.580000
   2 P    1.250000
   3 D    2.500000


 BAS: List of all Elementary Cartesian Basis Functions
 =====================================================

 The numbering in the list below (to the right of the function characteristics) is referred
 to in print-outs of MO eigenvectors and Mulliken populations in the BAS representation
 (as contrasted to the SFO representation).

 Notes:
 1. The functions are characterized by a polynomial prefactor (powers of x,y,z and r) and
    an exponential decay factor alpha.
 2. Since the basis sets are specific for an atom TYPE, the individual functions occur on
    all atoms of that type.
 3. The word 'Core' in the left margin signals that it is a Core Function (CF) : not a
    degree of freedom in the valence set, but only used to ensure orthogonalization of
    the other valence basis functions on the frozen Core Orbitals.


 (power of) X  Y  Z  R     Alpha  on Atom
            ==========     =====     ==========

 Si                                   1
                                  ---------------------------------------------------------------------------
            0  0  0  0    17.050      1
            0  0  0  0    12.450      2
            0  0  0  1     5.150      3
            0  0  0  1     3.600      4
            1  0  0  0     6.850      5
            0  1  0  0     6.850      6
            0  0  1  0     6.850      7
            1  0  0  0     3.650      8
            0  1  0  0     3.650      9
            0  0  1  0     3.650     10
            0  0  0  2     2.950     11
            0  0  0  2     1.850     12
            0  0  0  2     1.200     13
            1  0  0  1     2.000     14
            0  1  0  1     2.000     15
            0  0  1  1     2.000     16
            1  0  0  1     1.200     17
            0  1  0  1     1.200     18
            0  0  1  1     1.200     19
            1  0  0  1     0.750     20
            0  1  0  1     0.750     21
            0  0  1  1     0.750     22
            2  0  0  0     1.750     23
            1  1  0  0     1.750     24
            1  0  1  0     1.750     25
            0  2  0  0     1.750     26
            0  1  1  0     1.750     27
            0  0  2  0     1.750     28
            3  0  0  0     1.900     29
            2  1  0  0     1.900     30
            2  0  1  0     1.900     31
            1  2  0  0     1.900     32
            1  1  1  0     1.900     33
            1  0  2  0     1.900     34
            0  3  0  0     1.900     35
            0  2  1  0     1.900     36
            0  1  2  0     1.900     37
            0  0  3  0     1.900     38

 C                                    2    3    4    5
                                  ---------------------------------------------------------------------------
            0  0  0  0     7.680     39   69   99  129
            0  0  0  0     5.000     40   70  100  130
            0  0  0  1     1.280     41   71  101  131
            0  0  0  1     2.100     42   72  102  132
            0  0  0  1     4.600     43   73  103  133
            1  0  0  0     0.820     44   74  104  134
            0  1  0  0     0.820     45   75  105  135
            0  0  1  0     0.820     46   76  106  136
            1  0  0  0     1.480     47   77  107  137
            0  1  0  0     1.480     48   78  108  138
            0  0  1  0     1.480     49   79  109  139
            1  0  0  0     2.940     50   80  110  140
            0  1  0  0     2.940     51   81  111  141
            0  0  1  0     2.940     52   82  112  142
            2  0  0  0     2.200     53   83  113  143
            1  1  0  0     2.200     54   84  114  144
            1  0  1  0     2.200     55   85  115  145
            0  2  0  0     2.200     56   86  116  146
            0  1  1  0     2.200     57   87  117  147
            0  0  2  0     2.200     58   88  118  148
            3  0  0  0     3.300     59   89  119  149
            2  1  0  0     3.300     60   90  120  150
            2  0  1  0     3.300     61   91  121  151
            1  2  0  0     3.300     62   92  122  152
            1  1  1  0     3.300     63   93  123  153
            1  0  2  0     3.300     64   94  124  154
            0  3  0  0     3.300     65   95  125  155
            0  2  1  0     3.300     66   96  126  156
            0  1  2  0     3.300     67   97  127  157
            0  0  3  0     3.300     68   98  128  158

 H                                    6    7    8    9   10   11   12   13   14   15   16   17
                                  ---------------------------------------------------------------------------
            0  0  0  0     0.690    159  171  183  195  207  219  231  243  255  267  279  291
            0  0  0  0     0.920    160  172  184  196  208  220  232  244  256  268  280  292
            0  0  0  0     1.580    161  173  185  197  209  221  233  245  257  269  281  293
            1  0  0  0     1.250    162  174  186  198  210  222  234  246  258  270  282  294
            0  1  0  0     1.250    163  175  187  199  211  223  235  247  259  271  283  295
            0  0  1  0     1.250    164  176  188  200  212  224  236  248  260  272  284  296
            2  0  0  0     2.500    165  177  189  201  213  225  237  249  261  273  285  297
            1  1  0  0     2.500    166  178  190  202  214  226  238  250  262  274  286  298
            1  0  1  0     2.500    167  179  191  203  215  227  239  251  263  275  287  299
            0  2  0  0     2.500    168  180  192  204  216  228  240  252  264  276  288  300
            0  1  1  0     2.500    169  181  193  205  217  229  241  253  265  277  289  301
            0  0  2  0     2.500    170  182  194  206  218  230  242  254  266  278  290  302

 Total number of charge fitting functions (nprimf)      1042
 Total number of Cartesian basis functions (naos)        302
 Total number of Cartesian core functions  (ncos)          0

1
 ***************************************************************************************************



                                              ***********************
                                              *  T E C H N I C A L  *
                                              ***********************
  



 =============================================================
 P A R A L L E L I Z A T I O N  and  V E C T O R I Z A T I O N
 =============================================================
  
 Nr of parallel processes:                                4
 Maximum vector length in NumInt loops:                 128



 =====================
 S C F   U P D A T E S
 =====================
  
 Max. nr. of cycles:                               300
 Convergence criterion:                              0.0000010000
   secondary criterion:                              0.0010000000

 Mix parameter (when DIIS does not apply):           0.2000000000
 Mixed ADIIS+SDIIS will be used                  
    Max number of expansion vectors:                10
    Pure ADIIS when Max([F,P]) is above              0.1000000000
    Pure SDIIS when Max([F,P]) is below              0.0010000000
 Automatic ElectronSmearing (in case of problematic SCF convergence) disabled



 =================
 P R E C I S I O N  ***  (General: NumInt, NeglectFunctionTails, ...)  ***
 =================
  

 NumInt:           Target precision:                 4.0000000000
 -------           Initial precision:                4.0000000000
                   Min. precision (optimization):    4.0000000000

 Neglect Functions:          Basis functions:        0.1000000000E-05
 ------------------          Fit functions:          0.1000000000E-05



 ===========================
 L I N E A R   S C A L I N G
 ===========================
  

 Cut-off radii density fit:                        0.1000000000E-07
 Overlap cut-off criterion AO matrix elements:     0.1000000000E-05
 Cut-offs for Coulomb potential and fitted density:0.1000000000E-07
 Cut-off criterion for Coulomb multipole terms:    0.1000000000E-07
 Progressive Convergence parameter:                 0.000000000    

 Number of elements of the density matrix on this node (used, total):     11406     45753



 ===========================================
 Numerical Integration : Fuzzy Cells (Becke)
 ===========================================
  
 Becke grid quality: NORMAL         
  
 Lebedev angular grid order:             min:  11 max:  31
 Nr. of radial points:                   min:  46 max:  61

 Total nr. of points:     112450
 Nr. of blocks:              879
 Block length:               128
 Nr. of dummy points:         62


 Test of Precision of the Numerical Integration Grid
 ===================================================

 Integral of the Total Core Density:                   0.00000000000000


 -------------------------------------------
  COSMO surface
  Area             =          532.347
  Volume           =          937.324
  Number of Points =         1301
 -------------------------------------------



 ========================
 Density Fitting (zlmFit)
 ========================
  
 ZlmFit Fit Quality: NORMAL         
  
 Max L-expansion:                        min:   6 max:   8
 Nr. of radial interpolation points:     min:  39 max:  57



 =====
 S C F  ***  ScaSCF  ***
 =====
  
 Initial density matrix is taken from previous geometry

 CYCLE    1
  ***********************************************************
  ** : orbital data taken from :/tmp/amstmp_ams_kid0.1383993199/GOStep2.rkf
  ***********************************************************
 SCF Error: norm([F,P])=      0.015367481126, max([F,P])=      0.001884577251
 orbitals (Q,E):
 ---------------
 A :16...35          ( 2.00    -0.3641)  ( 2.00    -0.3640)  ( 2.00    -0.3502)  ( 2.00    -0.3501)
                     ( 2.00    -0.3339)  ( 2.00    -0.3338)  ( 2.00    -0.3338)  ( 2.00    -0.2574)
                     ( 2.00    -0.2573)  ( 2.00    -0.2571)  ( 0.00    -0.0168)  ( 0.00     0.0212)
                     ( 0.00     0.0213)  ( 0.00     0.0213)  ( 0.00     0.0410)  ( 0.00     0.0411)
                     ( 0.00     0.0411)  ( 0.00     0.0756)  ( 0.00     0.0759)  ( 0.00     0.0944)

 CYCLE    2
  SDIIS (wt  0.000):  0.6017  0.3983
 A-DIIS (wt  1.000):  0.6415  0.3585
  DIIS coefficients:  0.6415  0.3585
 SCF Error: norm([F,P])=      0.022751162036, max([F,P])=      0.002430882189
 orbitals (Q,E):
 ---------------
 A :16...26          ( 2.00    -0.3619)  ( 2.00    -0.3618)  ( 2.00    -0.3481)  ( 2.00    -0.3480)
                     ( 2.00    -0.3319)  ( 2.00    -0.3318)  ( 2.00    -0.3318)  ( 2.00    -0.2549)
                     ( 2.00    -0.2549)  ( 2.00    -0.2547)  ( 0.00    -0.0141)

 CYCLE    3
  SDIIS (wt  0.000):  0.4222  0.0965  0.4813
 A-DIIS (wt  1.000):  0.3198  0.0000  0.6802
  DIIS coefficients:  0.3198  0.0000  0.6802
 SCF Error: norm([F,P])=      0.009573274672, max([F,P])=      0.001202940183
 orbitals (Q,E):
 ---------------
 A :16...26          ( 2.00    -0.3596)  ( 2.00    -0.3596)  ( 2.00    -0.3459)  ( 2.00    -0.3458)
                     ( 2.00    -0.3296)  ( 2.00    -0.3296)  ( 2.00    -0.3296)  ( 2.00    -0.2530)
                     ( 2.00    -0.2529)  ( 2.00    -0.2528)  ( 0.00    -0.0117)

 CYCLE    4
  SDIIS (wt  1.000): -0.2053 -0.2299  1.4352
  DIIS coefficients: -0.2053 -0.2299  1.4352
 SCF Error: norm([F,P])=      0.005025283554, max([F,P])=      0.000569316715
 orbitals (Q,E):
 ---------------
 A :16...26          ( 2.00    -0.3577)  ( 2.00    -0.3577)  ( 2.00    -0.3441)  ( 2.00    -0.3439)
                     ( 2.00    -0.3278)  ( 2.00    -0.3277)  ( 2.00    -0.3277)  ( 2.00    -0.2514)
                     ( 2.00    -0.2514)  ( 2.00    -0.2512)  ( 0.00    -0.0093)

 CYCLE    5
  SDIIS (wt  1.000): -0.0687 -0.2068  0.6730  0.6025
  DIIS coefficients: -0.0687 -0.2068  0.6730  0.6025
 SCF Error: norm([F,P])=      0.001801988063, max([F,P])=      0.000303850801
 orbitals (Q,E):
 ---------------
 A :16...26          ( 2.00    -0.3576)  ( 2.00    -0.3575)  ( 2.00    -0.3439)  ( 2.00    -0.3438)
                     ( 2.00    -0.3276)  ( 2.00    -0.3276)  ( 2.00    -0.3276)  ( 2.00    -0.2512)
                     ( 2.00    -0.2511)  ( 2.00    -0.2509)  ( 0.00    -0.0092)

 CYCLE    6
  SDIIS (wt  1.000): -0.0187 -0.0831  0.2233  0.3174  0.5611
  DIIS coefficients: -0.0187 -0.0831  0.2233  0.3174  0.5611
 SCF Error: norm([F,P])=      0.000642520125, max([F,P])=      0.000111826978
 orbitals (Q,E):
 ---------------
 A :16...26          ( 2.00    -0.3576)  ( 2.00    -0.3576)  ( 2.00    -0.3440)  ( 2.00    -0.3438)
                     ( 2.00    -0.3277)  ( 2.00    -0.3276)  ( 2.00    -0.3276)  ( 2.00    -0.2512)
                     ( 2.00    -0.2512)  ( 2.00    -0.2510)  ( 0.00    -0.0093)

 CYCLE    7
  SDIIS (wt  1.000): -0.0010 -0.0126  0.0257  0.0477  0.1091  0.8310
  DIIS coefficients: -0.0010 -0.0126  0.0257  0.0477  0.1091  0.8310
 SCF Error: norm([F,P])=      0.000046195829, max([F,P])=      0.000016017166
 orbitals (Q,E):
 ---------------
 A :16...26          ( 2.00    -0.3576)  ( 2.00    -0.3576)  ( 2.00    -0.3440)  ( 2.00    -0.3438)
                     ( 2.00    -0.3277)  ( 2.00    -0.3276)  ( 2.00    -0.3276)  ( 2.00    -0.2512)
                     ( 2.00    -0.2512)  ( 2.00    -0.2510)  ( 0.00    -0.0093)

 CYCLE    8
  SDIIS (wt  1.000): -0.0003 -0.0013  0.0030  0.0083  0.0230  0.2069  0.7605
  DIIS coefficients: -0.0003 -0.0013  0.0030  0.0083  0.0230  0.2069  0.7605
 SCF Error: norm([F,P])=      0.000011068525, max([F,P])=      0.000002131374
 orbitals (Q,E):
 ---------------
 A :16...26          ( 2.00    -0.3576)  ( 2.00    -0.3576)  ( 2.00    -0.3440)  ( 2.00    -0.3438)
                     ( 2.00    -0.3277)  ( 2.00    -0.3276)  ( 2.00    -0.3276)  ( 2.00    -0.2512)
                     ( 2.00    -0.2512)  ( 2.00    -0.2510)  ( 0.00    -0.0093)

 CYCLE    9
  SDIIS (wt  1.000): -0.0001 -0.0001  0.0005  0.0027  0.0084  0.0846  0.4845  0.4196
  DIIS coefficients: -0.0001 -0.0001  0.0005  0.0027  0.0084  0.0846  0.4845  0.4196
 SCF Error: norm([F,P])=      0.000007599691, max([F,P])=      0.000001722764
 orbitals (Q,E):
 ---------------
 A :16...26          ( 2.00    -0.3576)  ( 2.00    -0.3576)  ( 2.00    -0.3440)  ( 2.00    -0.3438)
                     ( 2.00    -0.3277)  ( 2.00    -0.3276)  ( 2.00    -0.3276)  ( 2.00    -0.2512)
                     ( 2.00    -0.2512)  ( 2.00    -0.2510)  ( 0.00    -0.0093)

 CYCLE   10
  SDIIS (wt  1.000): -0.0000  0.0000 -0.0000  0.0001  0.0002  0.0065  0.0544  0.0788  0.8600
  DIIS coefficients: -0.0000  0.0000 -0.0000  0.0001  0.0002  0.0065  0.0544  0.0788  0.8600
 SCF Error: norm([F,P])=      0.000000455569, max([F,P])=      0.000000095202
 orbitals (Q,E):
 ---------------
 A :16...26          ( 2.00    -0.3576)  ( 2.00    -0.3576)  ( 2.00    -0.3440)  ( 2.00    -0.3438)
                     ( 2.00    -0.3277)  ( 2.00    -0.3276)  ( 2.00    -0.3276)  ( 2.00    -0.2512)
[...]
     8     H      -0.054461  -0.243271  -0.044097
     9     H      -0.085400  -0.137163  -0.115405
    10     H       0.072493   0.076634   0.295390
    11     H      -0.276789   0.206963   0.125229
    12     H      -0.112090   0.153748   0.079276
    13     H       0.138073  -0.049504  -0.335104
    14     H      -0.185972  -0.294666  -0.160621
    15     H      -0.152206   0.182482   0.045448
    16     H       0.198889   0.199941   0.200019
    17     H       0.175196  -0.116485  -0.038390
 
 Mode:    37      Frequency (cm-1):     1423.7549     Intensity (km/mol):       11.0339
 Index  Atom      ---- Displacements (x/y/z) ----
     1    Si      -0.003656   0.006432  -0.004503
     2     C      -0.003955   0.029185   0.000234
     3     C      -0.023522   0.012413  -0.018777
     4     C       0.006442   0.001857  -0.016452
     5     C      -0.018493   0.025794  -0.013658
     6     H       0.110000  -0.031545  -0.224768
     7     H      -0.084485  -0.023680   0.217053
     8     H       0.033843  -0.362847   0.009064
     9     H       0.286308  -0.157128   0.236714
    10     H      -0.163520  -0.096551   0.186190
    11     H       0.212605   0.072542  -0.153033
    12     H      -0.077287  -0.148891   0.049955
    13     H       0.005868  -0.004219   0.210793
    14     H      -0.015936   0.120023  -0.024782
    15     H      -0.071424  -0.360568   0.061434
    16     H       0.101834   0.110001  -0.164036
    17     H       0.234343  -0.120232   0.299732
 
 Mode:    38      Frequency (cm-1):     1423.9169     Intensity (km/mol):       11.0851
 Index  Atom      ---- Displacements (x/y/z) ----
     1    Si      -0.007833  -0.002959   0.002169
     2     C      -0.027819  -0.011510   0.017664
     3     C      -0.020351   0.012056   0.010676
     4     C      -0.022717  -0.020315   0.009251
     5     C      -0.013550  -0.012160  -0.014188
     6     H       0.292211  -0.179581   0.010925
     7     H       0.298287   0.261662  -0.140013
     8     H      -0.190291   0.083049  -0.122153
     9     H       0.139264   0.058931   0.146509
    10     H      -0.102770  -0.086967  -0.168217
    11     H       0.257437  -0.138310  -0.130114
    12     H       0.284143   0.194065  -0.187991
    13     H      -0.166598   0.065805  -0.152454
    14     H       0.212217   0.030600   0.207298
    15     H      -0.138749   0.107504   0.047749
    16     H       0.170587   0.171734   0.147244
    17     H       0.167084  -0.106174   0.002342
 
 Mode:    39      Frequency (cm-1):     1424.3013     Intensity (km/mol):       11.0962
 Index  Atom      ---- Displacements (x/y/z) ----
     1    Si      -0.000080  -0.005018  -0.007082
     2     C       0.013287  -0.017453  -0.004107
     3     C       0.010289  -0.003460  -0.028850
     4     C      -0.009168  -0.010771  -0.030269
     5     C      -0.014957  -0.021813  -0.012872
     6     H      -0.180992   0.085759   0.156195
     7     H      -0.038648  -0.073501  -0.120773
     8     H       0.032292   0.239837   0.030186
     9     H       0.036520  -0.212809  -0.014632
    10     H      -0.000243   0.034255   0.370695
    11     H      -0.180109   0.232691   0.058192
    12     H       0.088754  -0.184600  -0.061910
    13     H      -0.123748   0.044638   0.355574
    14     H       0.164063   0.297277   0.140324
    15     H      -0.153775   0.225440   0.043796
    16     H       0.199570   0.199825   0.221758
    17     H       0.165087  -0.112533  -0.076720
 
 Mode:    40      Frequency (cm-1):     2933.6591     Intensity (km/mol):       28.3100
 Index  Atom      ---- Displacements (x/y/z) ----
     1    Si      -0.000211  -0.000235  -0.000827
     2     C       0.020187   0.003964   0.034856
     3     C       0.007126   0.013369   0.000513
     4     C       0.000870  -0.001008   0.000178
     5     C      -0.014496  -0.001352   0.017108
     6     H      -0.227285  -0.424220  -0.006524
     7     H      -0.319105   0.356658  -0.038924
     8     H       0.311152   0.022017  -0.359089
     9     H      -0.117471  -0.008841   0.136503
    10     H       0.120983  -0.132776   0.015052
    11     H      -0.086005  -0.013827  -0.154708
    12     H      -0.005970  -0.002277  -0.011916
    13     H       0.007818   0.015318   0.000135
    14     H      -0.011284  -0.000462   0.012527
    15     H      -0.132320  -0.024786  -0.226921
    16     H       0.175357  -0.195987   0.023541
    17     H       0.127019   0.237431   0.006333
 
 Mode:    41      Frequency (cm-1):     2933.7397     Intensity (km/mol):       27.9225
 Index  Atom      ---- Displacements (x/y/z) ----
     1    Si      -0.000659  -0.000502   0.000311
     2     C       0.002498   0.000532   0.004285
     3     C       0.016604   0.031300   0.001064
     4     C       0.001166  -0.001235   0.000134
     5     C       0.021349   0.001978  -0.025118
     6     H      -0.026811  -0.050689   0.000194
     7     H      -0.039211   0.043590  -0.004608
     8     H       0.039059   0.002630  -0.046705
     9     H      -0.270337  -0.018177   0.315948
    10     H       0.283251  -0.310917   0.035747
    11     H      -0.204671  -0.035049  -0.365248
    12     H      -0.009836  -0.002175  -0.017203
    13     H       0.009771   0.020154   0.000441
    14     H      -0.011253  -0.001799   0.014095
    15     H       0.194909   0.036483   0.338111
    16     H      -0.257995   0.287936  -0.034858
    17     H      -0.184109  -0.345923  -0.010744
 
 Mode:    42      Frequency (cm-1):     2933.9680     Intensity (km/mol):       27.7567
 Index  Atom      ---- Displacements (x/y/z) ----
     1    Si      -0.000549   0.000685  -0.000048
     2     C       0.006826   0.001313   0.011782
     3     C      -0.008356  -0.015781  -0.000537
     4     C       0.026858  -0.030093   0.004022
     5     C       0.009730   0.000861  -0.011416
     6     H      -0.077875  -0.144389  -0.002766
     7     H      -0.105773   0.119017  -0.011862
     8     H       0.105629   0.007608  -0.122996
     9     H       0.137712   0.010210  -0.160627
    10     H      -0.141771   0.153743  -0.017791
    11     H       0.103615   0.018273   0.184920
    12     H      -0.237518  -0.047189  -0.418896
    13     H       0.230479   0.422045   0.010249
    14     H      -0.304825  -0.025521   0.361570
    15     H       0.088690   0.016833   0.154481
    16     H      -0.115175   0.129600  -0.016595
    17     H      -0.085372  -0.158921  -0.004206
 
 Mode:    43      Frequency (cm-1):     2936.5488     Intensity (km/mol):        0.1232
 Index  Atom      ---- Displacements (x/y/z) ----
     1    Si       0.000046  -0.000029   0.000009
     2     C       0.011364   0.002215   0.019615
     3     C      -0.011139  -0.020964  -0.000685
     4     C      -0.017809   0.019960  -0.002710
     5     C       0.015158   0.001396  -0.017828
     6     H      -0.128787  -0.239544  -0.004512
     7     H      -0.180497   0.201153  -0.022669
     8     H       0.175280   0.012338  -0.203843
     9     H       0.183010   0.013515  -0.213062
    10     H      -0.189694   0.209241  -0.023872
    11     H       0.137584   0.024197   0.245078
    12     H       0.158752   0.030698   0.278873
    13     H      -0.152646  -0.281672  -0.006761
    14     H       0.203213   0.016234  -0.240190
    15     H       0.138047   0.025946   0.240523
    16     H      -0.184107   0.204966  -0.024149
    17     H      -0.132537  -0.247303  -0.006519
 
 Mode:    44      Frequency (cm-1):     2996.6711     Intensity (km/mol):        0.1370
 Index  Atom      ---- Displacements (x/y/z) ----
     1    Si      -0.000005  -0.000006  -0.000033
     2     C      -0.020278   0.034705   0.007811
     3     C       0.023147  -0.011609  -0.025506
     4     C       0.020349   0.022564   0.035577
     5     C      -0.023801  -0.045915  -0.023390
     6     H      -0.103128  -0.169032  -0.006328
     7     H       0.245150  -0.263409   0.041776
     8     H       0.101430   0.015804  -0.128874
     9     H      -0.209022  -0.026760   0.238294
    10     H      -0.131045   0.156369  -0.023765
    11     H       0.062283   0.009726   0.091625
    12     H      -0.204058  -0.024559  -0.345700
    13     H      -0.127465  -0.255500   0.003530
    14     H       0.087134   0.009268  -0.084936
    15     H       0.159776   0.020455   0.301889
    16     H      -0.112123   0.103374  -0.015970
    17     H       0.238125   0.427449  -0.005050
 
 Mode:    45      Frequency (cm-1):     2996.9702     Intensity (km/mol):        1.9472
 Index  Atom      ---- Displacements (x/y/z) ----
     1    Si       0.000011  -0.000107   0.000085
     2     C      -0.022556  -0.039064   0.017184
     3     C       0.032814  -0.018738   0.036860
     4     C       0.023512   0.019414  -0.014833
     5     C      -0.031657   0.022050  -0.025500
     6     H       0.202391   0.366971   0.021986
     7     H      -0.106228   0.099699  -0.011807
     8     H       0.174452   0.002580  -0.217006
     9     H       0.055543   0.000672  -0.044801
    10     H      -0.235343   0.278871  -0.021885
    11     H      -0.214034  -0.054108  -0.376067
    12     H       0.002249   0.004359  -0.009933
    13     H      -0.115364  -0.233976  -0.008649
    14     H      -0.169277  -0.003008   0.196447
    15     H       0.153896   0.036631   0.294000
    16     H       0.251715  -0.275043   0.018567
    17     H      -0.025456  -0.026145  -0.006451
 
 Mode:    46      Frequency (cm-1):     2998.1444     Intensity (km/mol):        1.1029
 Index  Atom      ---- Displacements (x/y/z) ----
     1    Si      -0.000059  -0.000001  -0.000090
     2     C       0.008803   0.051681  -0.010715
     3     C       0.019611  -0.011940   0.044665
     4     C      -0.023698  -0.025507  -0.035006
     5     C      -0.013664  -0.015190  -0.012662
     6     H      -0.227567  -0.403446  -0.021995
     7     H       0.219411  -0.223460   0.031872
     8     H      -0.097307   0.005860   0.119536
     9     H       0.142177   0.012278  -0.145508
    10     H      -0.156315   0.184415  -0.009468
    11     H      -0.221440  -0.053089  -0.381716
    12     H       0.210409   0.024783   0.358195
    13     H       0.144804   0.290486  -0.002641
    14     H      -0.070195  -0.008984   0.065258
    15     H       0.083853   0.012884   0.158945
    16     H      -0.010305   0.004112  -0.003739
    17     H       0.090656   0.165549  -0.002908
 
 Mode:    47      Frequency (cm-1):     2998.3933     Intensity (km/mol):       14.9013
 Index  Atom      ---- Displacements (x/y/z) ----
     1    Si       0.000237   0.000318   0.000073
     2     C      -0.027402   0.028660   0.012509
     3     C       0.044020  -0.022831  -0.026045
     4     C      -0.006205  -0.005603  -0.000062
     5     C       0.024962   0.047314   0.024483
     6     H      -0.065541  -0.098974  -0.002161
     7     H       0.242129  -0.263459   0.042715
     8     H       0.151989   0.017484  -0.191496
     9     H      -0.290427  -0.038913   0.336536
    10     H      -0.264074   0.314212  -0.041308
    11     H       0.024511  -0.002698   0.017502
    12     H       0.016151   0.001414   0.030296
    13     H       0.032898   0.065464   0.001486
    14     H       0.025352  -0.000183  -0.031116
    15     H      -0.166830  -0.021915  -0.315512
    16     H       0.113122  -0.104178   0.016070
    17     H      -0.247055  -0.443136   0.005351
 
 Mode:    48      Frequency (cm-1):     2998.6131     Intensity (km/mol):       15.3315
 Index  Atom      ---- Displacements (x/y/z) ----
     1    Si       0.000040   0.000405  -0.000063
     2     C       0.041838   0.013602  -0.025430
     3     C       0.001590  -0.000853  -0.002116
     4     C      -0.006347  -0.000769   0.042194
     5     C      -0.032388   0.048394  -0.024345
     6     H      -0.135663  -0.260534  -0.018919
     7     H      -0.090206   0.112771  -0.021969
     8     H      -0.276873  -0.016390   0.346535
     9     H      -0.016601  -0.002221   0.019187
    10     H      -0.008401   0.009677  -0.001795
    11     H       0.005230   0.001007   0.008010
    12     H      -0.163041  -0.023473  -0.263024
    13     H       0.009585   0.021123   0.010794
    14     H       0.230117   0.010246  -0.254749
    15     H       0.139706   0.040053   0.268087
    16     H       0.382165  -0.409611   0.031049
    17     H      -0.133004  -0.212756  -0.006007
 
 Mode:    49      Frequency (cm-1):     2998.7974     Intensity (km/mol):       82.1391
 Index  Atom      ---- Displacements (x/y/z) ----
     1    Si      -0.000535  -0.000201  -0.000773
     2     C      -0.011486  -0.011626   0.008024
     3     C      -0.005950   0.005005  -0.054561
     4     C      -0.025186  -0.027141  -0.037165
     5     C      -0.036074   0.004592  -0.030393
     6     H       0.070839   0.130399   0.008455
     7     H      -0.011797   0.007108   0.000549
     8     H       0.081446   0.002881  -0.101434
     9     H      -0.239942  -0.025644   0.258519
    10     H       0.074776  -0.088065  -0.003317
    11     H       0.238324   0.055248   0.401827
    12     H       0.224923   0.025929   0.381595
    13     H       0.153478   0.309059  -0.002344
    14     H      -0.074107  -0.009182   0.068811
    15     H       0.189805   0.039451   0.363423
    16     H       0.188081  -0.210874   0.011312
    17     H       0.056034   0.116583  -0.007437
 
 Mode:    50      Frequency (cm-1):     2999.0167     Intensity (km/mol):       72.4896
 Index  Atom      ---- Displacements (x/y/z) ----
     1    Si      -0.000343   0.000828  -0.000079
     2     C      -0.025583   0.042019   0.010072
     3     C      -0.046257   0.024517   0.005487
     4     C       0.030831   0.025099  -0.020933
     5     C      -0.009928   0.030387  -0.006401
     6     H      -0.122916  -0.201153  -0.008116
     7     H       0.301721  -0.324281   0.052208
     8     H       0.129482   0.019038  -0.164446
     9     H       0.198366   0.029257  -0.236960
    10     H       0.293381  -0.349720   0.040151
    11     H       0.063902   0.022704   0.130957
    12     H       0.010556   0.006474   0.000165
    13     H      -0.151073  -0.307249  -0.011507
    14     H      -0.227425  -0.004415   0.263241
    15     H       0.031429   0.013580   0.061667
    16     H       0.193424  -0.203680   0.016292
    17     H      -0.104825  -0.176435  -0.001251
 
 Mode:    51      Frequency (cm-1):     2999.4513     Intensity (km/mol):       85.2670
 Index  Atom      ---- Displacements (x/y/z) ----
     1    Si      -0.000741  -0.000123   0.000619
     2     C      -0.045292  -0.002872   0.026208
     3     C      -0.020144   0.010033   0.026261
     4     C      -0.038340  -0.029257   0.044853
     5     C      -0.006289   0.004334  -0.005269
     6     H       0.098611   0.196805   0.015964
     7     H       0.156259  -0.181744   0.033072
     8     H       0.290605   0.019602  -0.365535
     9     H       0.203412   0.026289  -0.230226
    10     H       0.110787  -0.132862   0.020785
    11     H      -0.070125  -0.012446  -0.107152
    12     H      -0.091180  -0.018473  -0.128010
    13     H       0.176417   0.360060   0.018158
    14     H       0.377443   0.009383  -0.430168
    15     H       0.030161   0.007204   0.057643
    16     H       0.051973  -0.056513   0.003723
    17     H      -0.003259  -0.002387  -0.001506

PES point character: Geometry corresponds to a local minimum on the PES.




 ============================
 Statistical Thermal Analysis  ***  ideal gas assumed  ***
 ============================
  
 Pressure:                  1.000000 atm.
 Temperature:             298.150000 K



 Moments of Inertia [amu*bohr^2] and principal axis
 ==================================================

         593.2330        593.8261        594.9298
 ------------------------------------------------
           0.1419          0.9804         -0.1370
           0.7086         -0.1973         -0.6775
           0.6912          0.0010          0.7227


 The rotational contribution to the molecular entropy includes
 a term, dependent on the symmetry number sigma. The results 
 reported below were computed using sigma = 1, determined from
 the point group symmetry of the input geometry (NOSYM). 
 If this is not the correct symmetry, try symmetrizing the molecule before
 running the calculation (note: linear molecules should be aligned along one
 of the Cartesian axes).
 Contributions from frequencies below 20 1/cm are not included in vibrational sums.
 Their contributions, if any, are reported separately.


     Temp                                                        Transl      Rotat     Vibrat     Total
     ----                                                        ------      -----     ------     -----

     298.15   Entropy (cal/mol-K):                               39.339     26.841     23.681     89.861
              Nuclear Internal Energy (kcal/mol):                 0.889      0.889     93.481     95.258
              Constant Volume Heat Capacity (cal/mol-K):          2.981      2.981     27.578     33.540
          (c) Constant Volume Heat Capacity (cal/mol-K):          2.981      2.981     26.982     32.944

       Summary of energy terms
                                                   hartree              eV         kcal/mol           kJ/mol
                                      --------------------     -----------       ----------      -----------
      Energy from Engine:               -3.046838755071677        -82.9087         -1911.92         -7999.47
      Nuclear Internal Energy:           0.151803378609595          4.1308            95.26           398.56
  (c) Nuclear Internal Energy:           0.151430302916247          4.1206            95.02           397.58
      Internal Energy U:                -2.895035376462082        -78.7779         -1816.66         -7600.91
      pV/n = RT:                         0.000944186013486          0.0257             0.59             2.48
      Enthalpy H:                       -2.894091190448596        -78.7522         -1816.07         -7598.44
      -T*S:                             -0.042695930730234         -1.1618           -26.79          -112.10
  (c) -T*S:                             -0.042680014040851         -1.1614           -26.78          -112.06
      Gibbs free energy:                -2.936787121178830        -79.9140         -1842.86         -7710.53
 
 
 
  (c) The properties marked with this symbol have been corrected using 'low vibrational frequency free rotor
      interpolation corrections'. For those terms all positive frequencies are used (also ones below 20 1/cm),
      but the contribution to the partition function of small vibrational frequencies is modified as described
      in the following paper:
      S. Grimme, 'Supramolecular Binding Thermodynamics by Dispersion-Corrected Density Functional Theory'
      (Chem. Eur. J. 2012, 18, 9955-9964)
      Configuration: Dampener Frequency          :   100.000 1/cm
                     Dampener Alpha              :     4.000
                     Averaging Moment of Inertia : 1.000E-44 kg m2

--------------
Atomic charges
--------------
  Index   Atom    Charge
      1     Si    0.9117
      2      C    0.4200
      3      C    0.4202
      4      C    0.4196
      5      C    0.4195
      6      H   -0.2158
      7      H   -0.2157
      8      H   -0.2162
      9      H   -0.2162
     10      H   -0.2161
     11      H   -0.2157
     12      H   -0.2160
     13      H   -0.2161
     14      H   -0.2157
     15      H   -0.2160
     16      H   -0.2156
     17      H   -0.2160


Dipole moment vector    (Debye):    -0.00128415    0.00384489   -0.00238988
              magnitude (Debye):     0.00470571


Final PES point is a local minimum. Geometry optimization successful!


AMS application finished. Exiting.
NORMAL TERMINATION
     Total cpu time:     984.54
  Total system time:      10.00
 Total elapsed time:     999.21
