

 Parallel Execution: Process Information
 ==============================================================================
 Rank   Node Name                              NodeID   MyNodeRank  NodeMaster
    0   adf1                                      0          0          0
    1   adf1                                      0          1         -1
    2   adf1                                      0          2         -1
    3   adf1                                      0          3         -1
    4   adf1                                      0          4         -1
    5   adf1                                      0          5         -1
    6   adf1                                      0          6         -1
    7   adf1                                      0          7         -1
    8   adf1                                      0          8         -1
    9   adf1                                      0          9         -1
   10   adf1                                      0         10         -1
   11   adf1                                      0         11         -1
 ==============================================================================


May use up to 22932MB of RAM as shared memory on node 0

 *******************************************************************************
 *                                                                             *
 *  --------------------------------                                           *
 *   Amsterdam Modeling Suite (AMS)              2020.202                      *
 *  --------------------------------                                           *
 *                                               r90167 2020-12-05             *
 *                                                                             *
 *                                                                             *
 *                              =================                              *
 *                              |               |                              *
 *                              |     A M S     |                              *
 *                              |               |                              *
 *                              =================                              *
 *                                                                             *
 *                                                                             *
 *   Online information and documentation:  https://www.scm.com/support/       *
 *   E-mail:  support@scm.com   info@scm.com                                   *
 *                                                                             *
 *   Scientific publications using AMS results must be properly referenced     *
 *   See the User Manuals (or the web site) for recommended citations          *
 *   The terms and conditions of the End User License Agreement apply to       *
 *   the use of AMS, https://www.scm.com/license-terms/                        *
 *                                                                             *
 **********************  x86_64_linux_intel / intelmpi  ************************
 
 Licensed to: Dr. Miroslav Ilias / Matej Bel University, Department Chemistry, Fac. Natural Sciences / Banska Bystrica / SLOVAKIA
 SCM User ID: u17848
  
 AMS 2020.202  RunTime: Jan14-2021 11:07:05  Nodes: 1  Procs: 12

 AMS jobname: ams
 AMS jobid  : 1644806453

 Start   directory: /home/milias/Work/projects/open-collection/theoretical_chemistry/projects/nmr_diplomovky/reference_compounds/nitromethane/ams/tmp.milias.6878.0.noindex/
 Results directory: /home/milias/Work/projects/open-collection/theoretical_chemistry/projects/nmr_diplomovky/reference_compounds/nitromethane/ams/nitromethane.geopt_freq_blyp_tz2p.results/
 Scratch directory: /tmp/amstmp_ams_kid0.1644806453/


 Communication costs MPI_COMM_WORLD:      2.747 usec per message,   0.0269 usec per 8-byte item
 Communication costs for intra-node:      2.707 usec per message,   0.0268 usec per 8-byte item

 RNG seed: -1494916374 -170735290 -376941288 -1976494631 -824412279 189091273 -1458167959 467823251



                       *********************************************************************
                       *  ADF 2020.202  RunTime: Jan14-2021 11:07:05  Nodes: 1  Procs: 12  *
                       *********************************************************************
  
       ***************************
       *  GEOMETRY OPTIMIZATION  *
       ***************************

Optimization Method                    Quasi Newton
Optimization Coordinates               Delocalized Coordinates
Optimize lattice                       F
 
 ------------------------------------------------------
 Convergence criteria (Hartree,Angstrom)
 ------------------------------------------------------
 Maximum gradient               0.001000000000
 Maximum rms gradient           0.000666666667
 Maximum step allowed           0.001000000000
 Maximum rms step allowed       0.000666666667
 Maximum energy change allowe   0.000070000000
 Maximum stress energy allowe   0.000500000000
 
Initial model Hessian                  Automatic Hessian
 
------------------------------------
Quasi-Newton Optimizer Parameters
------------------------------------
Hessian Update Method                  BFGS
Maximum number of steps                  250
First GDIIS cycle                          0
Maximum GDIIS vectors                      0
Trust radius (bohr)                        0.200000
Trust radius varies                        T
Constraints converged at all steps         T
Use projector                              T
 
 Rigid motions settings for: old optimizer
 Atomic rotations (x,y,z):     T T T
 Atomic translations (x,y,z):  T T T
 Tolerance:                   1.000000000000000E-006
 
--------
Geometry
--------
Atoms
  Index Symbol   x (angstrom)   y (angstrom)   z (angstrom)
      1      C    -1.07401224     0.22225210     0.00936391
      2      N     0.42519099     0.15271602     0.00584967
      3      O     1.17678464     1.17918572     0.00008265
      4      O     1.07840963    -0.93870592    -0.01065500
      5      H    -1.40864838     1.13947685     0.50856497
      6      H    -1.49177277    -0.65697778     0.51426188
      7      H    -1.43530380     0.23491550    -1.02746809
 
Total System Charge             0.00000
Bonding info available!
 
 
----------------
ADF Engine Input
----------------
 
 Basis
 Type TZ2P
 Core None
 End
 XC
 GGA BLYP
 End
 Relativity
 Level None
 End
 

 Title: *** (NO TITLE) ***

 Using automatic Hessian for delocalized coordinates.
 *** GOStep1 ***

 Energy gradients wrt nuclear displacements
 ==========================================

     Atom      Cartesian (a.u./angstrom)
                 X         Y         Z
 ----------------------------------------
     1 C     0.018200 -0.000913 -0.002906
     2 N    -0.170002  0.007801  0.001411
     3 O     0.092557 -0.021810 -0.001111
     4 O     0.094243  0.013194 -0.000869
     5 H    -0.012346  0.001454  0.001777
     6 H    -0.012396 -0.000264  0.001748
     7 H    -0.010256  0.000537 -0.000051
 ----------------------------------------
 Mulliken charges used for AMS results%charges...
 
----------------------------------------------------------------------
Geometry Convergence after Step   1       (Hartree/Angstrom,Angstrom)
----------------------------------------------------------------------
current energy                               -1.36148302 Hartree
energy change                      -1.36148302     0.00007000    F
constrained gradient max            0.17000165     0.00100000    F
constrained gradient rms            0.04772149     0.00066667    F
gradient max                        0.17000165
gradient rms                        0.04772149
cart. step max                      0.07789404     0.00100000    F
cart. step rms                      0.03082228     0.00066667    F
 
 
--------
Geometry
--------
Atoms
  Index Symbol   x (angstrom)   y (angstrom)   z (angstrom)
      1      C    -1.05135299     0.22121511     0.00943647
      2      N     0.44134099     0.15200258     0.00623186
      3      O     1.10280484     1.22335237     0.00070096
      4      O     1.00051559    -0.97583135    -0.01051708
      5      H    -1.37028093     1.14080297     0.50957110
      6      H    -1.45365165    -0.66184099     0.51531480
      7      H    -1.39872778     0.23316180    -1.03073811
 
Total System Charge             0.00000
Bonding info available!
 
 *** GOStep2 ***

 Energy gradients wrt nuclear displacements
 ==========================================

     Atom      Cartesian (a.u./angstrom)
                 X         Y         Z
 ----------------------------------------
     1 C     0.023015 -0.001256 -0.003929
     2 N    -0.075986  0.003547  0.000426
     3 O     0.036865  0.016735  0.000058
     4 O     0.034958 -0.019488 -0.000122
     5 H    -0.006416  0.000799  0.001877
     6 H    -0.006527 -0.000486  0.001852
     7 H    -0.005909  0.000150 -0.000162
 ----------------------------------------
 Mulliken charges used for AMS results%charges...

 dE(predicted):    -0.13924E-01, dE(actual):    -0.12363E-01, Trust radius:    0.400000, all in a.u.
 
----------------------------------------------------------------------
Geometry Convergence after Step   2       (Hartree/Angstrom,Angstrom)
----------------------------------------------------------------------
current energy                               -1.37384635 Hartree
energy change                      -0.01236333     0.00007000    F
constrained gradient max            0.07598903     0.00100000    F
constrained gradient rms            0.02149284     0.00066667    F
gradient max                        0.07598903
gradient rms                        0.02149284
cart. step max                      0.03909172     0.00100000    F
cart. step rms                      0.01535338     0.00066667    F
 
 
--------
Geometry
--------
Atoms
  Index Symbol   x (angstrom)   y (angstrom)   z (angstrom)
      1      C    -1.04789565     0.22122691     0.01452612
      2      N     0.44863767     0.15124882     0.01783159
      3      O     1.06371312     1.22413127    -0.00678653
      4      O     0.96264616    -0.97345896    -0.01804576
      5      H    -1.35273661     1.14521762     0.50975126
      6      H    -1.43614047    -0.66749276     0.51568685
      7      H    -1.36757615     0.23198959    -1.03296353
 
Total System Charge             0.00000
Bonding info available!
 
 *** GOStep3 ***

 Energy gradients wrt nuclear displacements
 ==========================================

     Atom      Cartesian (a.u./angstrom)
                 X         Y         Z
 ----------------------------------------
     1 C     0.019066 -0.000629 -0.004641
     2 N    -0.005663  0.000317  0.008786
     3 O    -0.005440 -0.010395 -0.002620
     4 O    -0.004412  0.010440 -0.002680
     5 H    -0.000941  0.000530  0.000700
     6 H    -0.000786 -0.000395  0.000688
     7 H    -0.001824  0.000132 -0.000233
 ----------------------------------------
 Mulliken charges used for AMS results%charges...

 dE(predicted):    -0.18314E-02, dE(actual):    -0.17591E-02, Trust radius:    0.400000, all in a.u.
 
----------------------------------------------------------------------
Geometry Convergence after Step   3       (Hartree/Angstrom,Angstrom)
----------------------------------------------------------------------
current energy                               -1.37560546 Hartree
energy change                      -0.00175911     0.00007000    F
constrained gradient max            0.01906514     0.00100000    F
constrained gradient rms            0.00609917     0.00066667    F
gradient max                        0.01906514
gradient rms                        0.00609917
cart. step max                      0.04749963     0.00100000    F
cart. step rms                      0.01460945     0.00066667    F
 
 
--------
Geometry
--------
Atoms
  Index Symbol   x (angstrom)   y (angstrom)   z (angstrom)
      1      C    -1.05218834     0.22125644     0.00868693
      2      N     0.45223887     0.15125811    -0.02966805
      3      O     1.06239440     1.22785423     0.01851350
      4      O     0.96143740    -0.97708499     0.00846144
      5      H    -1.33990280     1.14598917     0.51074336
      6      H    -1.42410967    -0.66986993     0.51597846
      7      H    -1.38922178     0.23345946    -1.03271564
 
Total System Charge             0.00000
Bonding info available!
 
 *** GOStep4 ***

 Energy gradients wrt nuclear displacements
 ==========================================

     Atom      Cartesian (a.u./angstrom)
                 X         Y         Z
 ----------------------------------------
     1 C     0.012285 -0.000449  0.010150
     2 N     0.001175  0.000183 -0.034900
     3 O    -0.006962 -0.004894  0.011693
     4 O    -0.006481  0.005056  0.012077
     5 H    -0.001153  0.000182  0.000572
     6 H    -0.001182 -0.000006  0.000531
     7 H     0.002319 -0.000072 -0.000123
 ----------------------------------------
 Mulliken charges used for AMS results%charges...

 dE(predicted):    -0.36372E-03, dE(actual):     0.72376E-03, Trust radius:    0.049774, all in a.u.
 
----------------------------------------------------------------------
Geometry Convergence after Step   4       (Hartree/Angstrom,Angstrom)
----------------------------------------------------------------------
current energy                               -1.37488170 Hartree
energy change                       0.00072376     0.00007000    F
constrained gradient max            0.03489474     0.00100000    F
constrained gradient rms            0.00952403     0.00066667    F
gradient max                        0.03489474
gradient rms                        0.00952403
cart. step max                      0.01178851     0.00100000    F
cart. step rms                      0.00416956     0.00066667    F
 
 
--------
Geometry
--------
Atoms
  Index Symbol   x (angstrom)   y (angstrom)   z (angstrom)
      1      C    -1.05590224     0.22135218     0.00965636
      2      N     0.45354381     0.15115532    -0.01787953
      3      O     1.06914389     1.22924747     0.01308901
      4      O     0.96801332    -0.97891472     0.00284022
      5      H    -1.34485423     1.14638571     0.50993335
      6      H    -1.42942652    -0.66977422     0.51528572
      7      H    -1.38986996     0.23341076    -1.03292514
 
Total System Charge             0.00000
Bonding info available!
 
 *** GOStep5 ***

 Energy gradients wrt nuclear displacements
 ==========================================

     Atom      Cartesian (a.u./angstrom)
                 X         Y         Z
 ----------------------------------------
     1 C     0.007573 -0.000326  0.007034
     2 N    -0.005492  0.000353 -0.023835
     3 O    -0.000189  0.001856  0.008207
     4 O    -0.000405 -0.002031  0.008448
     5 H    -0.000980  0.000024  0.000144
     6 H    -0.001049  0.000119  0.000113
     7 H     0.000542  0.000006 -0.000112
 ----------------------------------------
 Mulliken charges used for AMS results%charges...

 dE(predicted):    -0.53591E-03, dE(actual):    -0.50581E-03, Trust radius:    0.099547, all in a.u.
 
----------------------------------------------------------------------
Geometry Convergence after Step   5       (Hartree/Angstrom,Angstrom)
----------------------------------------------------------------------
current energy                               -1.37538751 Hartree
energy change                      -0.00050581     0.00007000    F
constrained gradient max            0.02383123     0.00100000    F
constrained gradient rms            0.00637781     0.00066667    F
gradient max                        0.02383123
gradient rms                        0.00637781
cart. step max                      0.02376816     0.00100000    F
cart. step rms                      0.00746199     0.00066667    F
 
 
--------
Geometry
--------
Atoms
  Index Symbol   x (angstrom)   y (angstrom)   z (angstrom)
      1      C    -1.05955084     0.22152809     0.01331444
      2      N     0.45523929     0.15097960     0.00588863
      3      O     1.07032974     1.22745364     0.00033630
      4      O     0.96922489    -0.97710876    -0.01078841
      5      H    -1.35091349     1.14762522     0.50962608
      6      H    -1.43559138    -0.67014974     0.51552133
      7      H    -1.37809014     0.23253444    -1.03389837
 
Total System Charge             0.00000
Bonding info available!
 
 *** GOStep6 ***

 Energy gradients wrt nuclear displacements
 ==========================================

     Atom      Cartesian (a.u./angstrom)
                 X         Y         Z
 ----------------------------------------
     1 C     0.002812 -0.000084  0.000685
     2 N    -0.000257 -0.000088 -0.002007
     3 O    -0.001091 -0.001764  0.000952
     4 O    -0.001022  0.001777  0.000931
     5 H     0.000105  0.000066 -0.000210
     6 H     0.000060  0.000009 -0.000223
     7 H    -0.000607  0.000084 -0.000129
 ----------------------------------------
 Mulliken charges used for AMS results%charges...

 dE(predicted):    -0.43815E-03, dE(actual):    -0.44294E-03, Trust radius:    0.199094, all in a.u.
 
----------------------------------------------------------------------
Geometry Convergence after Step   6       (Hartree/Angstrom,Angstrom)
----------------------------------------------------------------------
current energy                               -1.37583044 Hartree
energy change                      -0.00044294     0.00007000    F
constrained gradient max            0.00281065     0.00100000    F
constrained gradient rms            0.00105181     0.00066667    F
gradient max                        0.00281065
gradient rms                        0.00105181
cart. step max                      0.00367510     0.00100000    F
cart. step rms                      0.00159120     0.00066667    F
 
 
--------
Geometry
--------
Atoms
  Index Symbol   x (angstrom)   y (angstrom)   z (angstrom)
      1      C    -1.06114703     0.22157301     0.01455853
      2      N     0.45599388     0.15096527     0.00867068
      3      O     1.07134394     1.22830238    -0.00235278
      4      O     0.97012302    -0.97799475    -0.01299107
      5      H    -1.35320552     1.14775907     0.51026835
      6      H    -1.43804518    -0.67025808     0.51584701
      7      H    -1.37441504     0.23251561    -1.03400072
 
Total System Charge             0.00000
Bonding info available!
 
 *** GOStep7 ***

 Energy gradients wrt nuclear displacements
 ==========================================

     Atom      Cartesian (a.u./angstrom)
                 X         Y         Z
 ----------------------------------------
     1 C     0.000714 -0.000009  0.000147
     2 N    -0.000706 -0.000023  0.000237
     3 O     0.000144  0.000423  0.000061
     4 O    -0.000019 -0.000506 -0.000028
     5 H     0.000058  0.000055 -0.000172
     6 H    -0.000024  0.000007 -0.000186
     7 H    -0.000167  0.000053 -0.000060
 ----------------------------------------
 Mulliken charges used for AMS results%charges...

 dE(predicted):    -0.10983E-04, dE(actual):    -0.30706E-05, Trust radius:    0.199094, all in a.u.
 
---------------------------------------------------------
Geometry Convergence after Step   7       ** CONVERGED **
---------------------------------------------------------
current energy                               -1.37583351 Hartree
energy change                      -0.00000307     0.00007000    T
constrained gradient max            0.00071333     0.00100000    T
constrained gradient rms            0.00027743     0.00066667    T
gradient max                        0.00071333
gradient rms                        0.00027743
cart. step max                      0.00059577     0.00100000    T
cart. step rms                      0.00027828     0.00066667    T
 
Geometry optimization converged

Optimized geometry:
 
--------
Geometry
--------
Atoms
  Index Symbol   x (angstrom)   y (angstrom)   z (angstrom)
      1      C    -1.06114703     0.22157301     0.01455853
      2      N     0.45599388     0.15096527     0.00867068
      3      O     1.07134394     1.22830238    -0.00235278
      4      O     0.97012302    -0.97799475    -0.01299107
      5      H    -1.35320552     1.14775907     0.51026835
      6      H    -1.43804518    -0.67025808     0.51584701
      7      H    -1.37441504     0.23251561    -1.03400072
 
Total System Charge             0.00000
Bonding info available!
 
Performing a single point calculation on the final geometry ...

 *** adf ***



 ===========================
 A T T A C H E D   F I L E S
 ===========================
  
 Restart/tmp/amstmp_ams_kid0.1644806453/GOStep7.rkf*** GOStep7 ***



 ===============================
 M O D E L   P A R A M E T E R S
 ===============================
  
 DENSITY FUNCTIONAL POTENTIAL (scf)
    LDA:                               Exchange only                           == Not Default ==
    Gradient Corrections:              Becke88 LYP                             == Not Default ==

 SPIN  (restricted / unrestr.)
    Molecule:                          Restricted                               
    Fragments:                         Restricted                               

 OTHER ASPECTS
    Relativistic Corrections:          ---                                     == Not Default ==

    Nuclear Charge Density Model:      Point Charge Nuclei                      
    Core Treatment:                    Frozen Orbital(s)                        

    Hyperfine or Zeeman Interaction:   ---                                      



 ===============
 G E O M E T R Y  ***  3D  Molecule  ***
 ===============
  

 ATOMS
 =====                            X Y Z                    CHARGE
                                (Angstrom)             Nucl     +Core       At.Mass
                       --------------------------    ----------------       -------
    1  C              -1.0611    0.2216    0.0146      6.00      6.00       12.0000
    2  N               0.4560    0.1510    0.0087      7.00      7.00       14.0031
    3  O               1.0713    1.2283   -0.0024      8.00      8.00       15.9949
    4  O               0.9701   -0.9780   -0.0130      8.00      8.00       15.9949
    5  H              -1.3532    1.1478    0.5103      1.00      1.00        1.0078
    6  H              -1.4380   -0.6703    0.5158      1.00      1.00        1.0078
    7  H              -1.3744    0.2325   -1.0340      1.00      1.00        1.0078


 FRAGMENTS
 =========                                     Atoms in this Fragment     Cart. coord.s (Angstrom)
                                               -------------------------------------------------------
    1  C                                                 1  C           -1.0611    0.2216    0.0146
    2  N                                                 2  N            0.4560    0.1510    0.0087
    3  O                                                 3  O            1.0713    1.2283   -0.0024
    4  O                                                 4  O            0.9701   -0.9780   -0.0130
    5  H                                                 5  H           -1.3532    1.1478    0.5103
    6  H                                                 6  H           -1.4380   -0.6703    0.5158
    7  H                                                 7  H           -1.3744    0.2325   -1.0340


 Interatomic Distance Matrix (Angstrom)
 --------------------------------------

   1)     0.000
   2)     1.519   0.000
   3)     2.358   1.241   0.000
   4)     2.359   1.241   2.209   0.000
   5)     1.090   2.126   2.479   3.192   0.000
   6)     1.090   2.126   3.189   2.485   1.820   0.000
   7)     1.094   2.108   2.835   2.829   1.795   1.795   0.000

 Min. Distance =    1.0903
 Max. Distance =    3.1923



 =====================================
 S Y M M E T R Y ,   E L E C T R O N S
 =====================================
  
 Symmetry: NOSYM

 Irreducible Representations, including subspecies
 -------------------------------------------------
 A


 Configuration of Valence Electrons
 ==================================
 ( determined in the SCF procedure )

 Total:   32

 Net Charge: 0 (Nuclei minus Electrons)

 Aufbau principle for MO occupations will be applied through SCF cycle no.     150
 Thereafter, the program will assign electrons to MOs that are spatially
 similar to the occupied MOs in a "reference" cycle ("KeepOrbitals").
 The reference cycle is always the PREVIOUS cycle: it will evolve with
 the SCF procedure.
1
 ***************************************************************************************************



                                      ****************************************
                                      *  B U I L D : (Fragments, Functions)  *
                                      ****************************************
  



 =======
 S F O s  ***  (Symmetrized Fragment Orbitals)  ***
 =======
  
 SFOs are linear combinations of (valence) Fragment Orbitals (FOs), such that the SFOs transform as the
 irreducible representations of the (molecular) symmetry group. Each SFO is therefore characterized by
 an irrep of the molecule and by a few (or only one) generating FOs.
 The SFOs constitute a symmetry-adapted basis for the Fock matrix. The MO eigenvector coefficients in
 this basis provide a direct interpretation of the MOs in terms of Frontier Orbital Theory.

 The SFOs are combined with auxiliary Core Functions (CFs) to ensure orthogonalization on the (frozen)
 Core Orbitals (COs). The Core-orthogonalized SFOs (CSFOs) constitute the true Fock basis.

 The FOs, and hence also the (C)SFOs are combinations of the elementary basis functions (BAS). The basis
 functions that participate in the description of the SFOs depend on the irrep. The indices of the
 involved functions are printed below for each irrep.
 (The complete list of primitive basis functions is printed in another section)

 Total nr. of (C)SFOs (summation over all irreps) :   137

 NOTE: a (C)SFO that is defined as a combination of more than one FO is usually NOT normalized.



                                       === A ===
 Nr. of SFOs :  137
 Cartesian basis functions that participate in this irrep (total number =   156) :
      1     2     3     4     5     6     9    12     7    10
     13     8    11    14    15    16    17    18    19    20
     21    22    23    24    25    26    27    28    29    30
     31    32    33    34    35    36    39    42    37    40
     43    38    41    44    45    46    47    48    49    50
     51    52    53    54    55    56    57    58    59    60
     61    62    63    64    65    66    69    72    67    70
     73    68    71    74    75    76    77    78    79    80
     81    82    83    84    85    86    87    88    89    90
     91    92    93    94    95    96    99   102    97   100
    103    98   101   104   105   106   107   108   109   110
    111   112   113   114   115   116   117   118   119   120
    121   122   123   124   125   126   127   128   129   130
    131   132   133   134   135   136   137   138   139   140
    141   142   143   144   145   146   147   148   149   150
    151   152   153   154   155   156

    SFO  (index         Fragment          Generating    Expansion in Fragment Orbitals
  indx  incl.CFs)   Occup   Orb.Energy   FragmentType  Coeff.   Orbital     on Fragment
 --------------------------------------------------------------------------------------
     1       1      2.000     -10.063 au  C             1.00      1 S               1
                        (    -273.823 eV)
     2       2      2.000      -0.500 au  C             1.00      2 S               1
                        (     -13.609 eV)
     3       3       --         0.374 au  C             1.00      3 S               1
                        (      10.173 eV)
     4       4       --         5.411 au  C             1.00      4 S               1
                        (     147.253 eV)
     5       5       --        50.155 au  C             1.00      5 S               1
                        (    1364.777 eV)
     6       6      0.667      -0.193 au  C             1.00      1 P:x             1
                        (      -5.243 eV)
     7       7       --         0.169 au  C             1.00      2 P:x             1
                        (       4.588 eV)
     8       8       --         2.015 au  C             1.00      3 P:x             1
                        (      54.822 eV)
     9       9      0.667      -0.193 au  C             1.00      1 P:y             1
                        (      -5.243 eV)
    10      10       --         0.169 au  C             1.00      2 P:y             1
                        (       4.588 eV)
    11      11       --         2.015 au  C             1.00      3 P:y             1
                        (      54.822 eV)
    12      12      0.667      -0.193 au  C             1.00      1 P:z             1
                        (      -5.243 eV)
    13      13       --         0.169 au  C             1.00      2 P:z             1
                        (       4.588 eV)
    14      14       --         2.015 au  C             1.00      3 P:z             1
                        (      54.822 eV)
    15      15       --         1.243 au  C             1.00      1 D:z2            1
                        (      33.823 eV)
    16      16       --         1.243 au  C             1.00      1 D:x2-y2         1
                        (      33.823 eV)
    17      17       --         1.243 au  C             1.00      1 D:xy            1
                        (      33.823 eV)
    18      18       --         1.243 au  C             1.00      1 D:xz            1
                        (      33.823 eV)
    19      19       --         1.243 au  C             1.00      1 D:yz            1
                        (      33.823 eV)
    20      20       --         4.016 au  C             1.00      1 F:z3            1
                        (     109.288 eV)
    21      21       --         4.016 au  C             1.00      1 F:z             1
                        (     109.288 eV)
    22      22       --         4.016 au  C             1.00      1 F:xyz           1
                        (     109.288 eV)
    23      23       --         4.016 au  C             1.00      1 F:z2x           1
                        (     109.288 eV)
    24      24       --         4.016 au  C             1.00      1 F:z2y           1
                        (     109.288 eV)
    25      25       --         4.016 au  C             1.00      1 F:x             1
                        (     109.288 eV)
    26      26       --         4.016 au  C             1.00      1 F:y             1
                        (     109.288 eV)
    27      27      2.000     -14.153 au  N             1.00      1 S               2
                        (    -385.118 eV)
    28      28      2.000      -0.677 au  N             1.00      2 S               2
                        (     -18.426 eV)
    29      29       --         0.518 au  N             1.00      3 S               2
                        (      14.102 eV)
    30      30       --         6.883 au  N             1.00      4 S               2
                        (     187.301 eV)
    31      31       --        63.954 au  N             1.00      5 S               2
                        (    1740.284 eV)
    32      32      1.000      -0.260 au  N             1.00      1 P:x             2
                        (      -7.067 eV)
    33      33       --         0.281 au  N             1.00      2 P:x             2
                        (       7.648 eV)
    34      34       --         3.278 au  N             1.00      3 P:x             2
                        (      89.195 eV)
    35      35      1.000      -0.260 au  N             1.00      1 P:y             2
                        (      -7.067 eV)
    36      36       --         0.281 au  N             1.00      2 P:y             2
                        (       7.648 eV)
    37      37       --         3.278 au  N             1.00      3 P:y             2
                        (      89.195 eV)
    38      38      1.000      -0.260 au  N             1.00      1 P:z             2
                        (      -7.067 eV)
    39      39       --         0.281 au  N             1.00      2 P:z             2
                        (       7.648 eV)
    40      40       --         3.278 au  N             1.00      3 P:z             2
                        (      89.195 eV)
    41      41       --         1.250 au  N             1.00      1 D:z2            2
                        (      34.002 eV)
    42      42       --         1.250 au  N             1.00      1 D:x2-y2         2
                        (      34.002 eV)
    43      43       --         1.250 au  N             1.00      1 D:xy            2
                        (      34.002 eV)
    44      44       --         1.250 au  N             1.00      1 D:xz            2
                        (      34.002 eV)
    45      45       --         1.250 au  N             1.00      1 D:yz            2
                        (      34.002 eV)
    46      46       --         4.013 au  N             1.00      1 F:z3            2
                        (     109.204 eV)
    47      47       --         4.013 au  N             1.00      1 F:z             2
                        (     109.204 eV)
    48      48       --         4.013 au  N             1.00      1 F:xyz           2
                        (     109.204 eV)
    49      49       --         4.013 au  N             1.00      1 F:z2x           2
                        (     109.204 eV)
    50      50       --         4.013 au  N             1.00      1 F:z2y           2
                        (     109.204 eV)
    51      51       --         4.013 au  N             1.00      1 F:x             2
                        (     109.204 eV)
    52      52       --         4.013 au  N             1.00      1 F:y             2
                        (     109.204 eV)
    53      53      2.000     -18.927 au  O             1.00      1 S               3
                        (    -515.020 eV)
    54      54      2.000      -0.874 au  O             1.00      2 S               3
                        (     -23.792 eV)
    55      55       --         0.793 au  O             1.00      3 S               3
                        (      21.588 eV)
    56      56       --        13.460 au  O             1.00      4 S               3
                        (     366.259 eV)
    57      57       --       123.108 au  O             1.00      5 S               3
                        (    3349.933 eV)
    58      58      1.333      -0.332 au  O             1.00      1 P:x             3
                        (      -9.028 eV)
    59      59       --         0.347 au  O             1.00      2 P:x             3
                        (       9.435 eV)
    60      60       --         3.825 au  O             1.00      3 P:x             3
                        (     104.075 eV)
    61      61      1.333      -0.332 au  O             1.00      1 P:y             3
                        (      -9.028 eV)
    62      62       --         0.347 au  O             1.00      2 P:y             3
                        (       9.435 eV)
    63      63       --         3.825 au  O             1.00      3 P:y             3
                        (     104.075 eV)
    64      64      1.333      -0.332 au  O             1.00      1 P:z             3
                        (      -9.028 eV)
    65      65       --         0.347 au  O             1.00      2 P:z             3
                        (       9.435 eV)
    66      66       --         3.825 au  O             1.00      3 P:z             3
                        (     104.075 eV)
    67      67       --         1.070 au  O             1.00      1 D:z2            3
                        (      29.129 eV)
    68      68       --         1.070 au  O             1.00      1 D:x2-y2         3
                        (      29.129 eV)
    69      69       --         1.070 au  O             1.00      1 D:xy            3
                        (      29.129 eV)
    70      70       --         1.070 au  O             1.00      1 D:xz            3
                        (      29.129 eV)
    71      71       --         1.070 au  O             1.00      1 D:yz            3
                        (      29.129 eV)
    72      72       --         3.359 au  O             1.00      1 F:z3            3
                        (      91.415 eV)
    73      73       --         3.359 au  O             1.00      1 F:z             3
                        (      91.415 eV)
    74      74       --         3.359 au  O             1.00      1 F:xyz           3
                        (      91.415 eV)
    75      75       --         3.359 au  O             1.00      1 F:z2x           3
                        (      91.415 eV)
    76      76       --         3.359 au  O             1.00      1 F:z2y           3
                        (      91.415 eV)
    77      77       --         3.359 au  O             1.00      1 F:x             3
                        (      91.415 eV)
    78      78       --         3.359 au  O             1.00      1 F:y             3
                        (      91.415 eV)
    79      79      2.000     -18.927 au  O             1.00      1 S               4
                        (    -515.020 eV)
    80      80      2.000      -0.874 au  O             1.00      2 S               4
                        (     -23.792 eV)
    81      81       --         0.793 au  O             1.00      3 S               4
                        (      21.588 eV)
    82      82       --        13.460 au  O             1.00      4 S               4
                        (     366.259 eV)
    83      83       --       123.108 au  O             1.00      5 S               4
                        (    3349.933 eV)
    84      84      1.333      -0.332 au  O             1.00      1 P:x             4
                        (      -9.028 eV)
    85      85       --         0.347 au  O             1.00      2 P:x             4
                        (       9.435 eV)
    86      86       --         3.825 au  O             1.00      3 P:x             4
                        (     104.075 eV)
    87      87      1.333      -0.332 au  O             1.00      1 P:y             4
                        (      -9.028 eV)
    88      88       --         0.347 au  O             1.00      2 P:y             4
                        (       9.435 eV)
    89      89       --         3.825 au  O             1.00      3 P:y             4
                        (     104.075 eV)
    90      90      1.333      -0.332 au  O             1.00      1 P:z             4
                        (      -9.028 eV)
    91      91       --         0.347 au  O             1.00      2 P:z             4
                        (       9.435 eV)
    92      92       --         3.825 au  O             1.00      3 P:z             4
                        (     104.075 eV)
    93      93       --         1.070 au  O             1.00      1 D:z2            4
                        (      29.129 eV)
    94      94       --         1.070 au  O             1.00      1 D:x2-y2         4
                        (      29.129 eV)
    95      95       --         1.070 au  O             1.00      1 D:xy            4
                        (      29.129 eV)
    96      96       --         1.070 au  O             1.00      1 D:xz            4
                        (      29.129 eV)
    97      97       --         1.070 au  O             1.00      1 D:yz            4
                        (      29.129 eV)
    98      98       --         3.359 au  O             1.00      1 F:z3            4
                        (      91.415 eV)
    99      99       --         3.359 au  O             1.00      1 F:z             4
                        (      91.415 eV)
   100     100       --         3.359 au  O             1.00      1 F:xyz           4
                        (      91.415 eV)
   101     101       --         3.359 au  O             1.00      1 F:z2x           4
                        (      91.415 eV)
   102     102       --         3.359 au  O             1.00      1 F:z2y           4
                        (      91.415 eV)
   103     103       --         3.359 au  O             1.00      1 F:x             4
                        (      91.415 eV)
   104     104       --         3.359 au  O             1.00      1 F:y             4
                        (      91.415 eV)
   105     105      1.000      -0.240 au  H             1.00      1 S               5
                        (      -6.532 eV)
   106     106       --         0.088 au  H             1.00      2 S               5
                        (       2.394 eV)
   107     107       --         1.502 au  H             1.00      3 S               5
                        (      40.877 eV)
   108     108       --         0.406 au  H             1.00      1 P:x             5
                        (      11.052 eV)
   109     109       --         0.406 au  H             1.00      1 P:y             5
                        (      11.052 eV)
   110     110       --         0.406 au  H             1.00      1 P:z             5
                        (      11.052 eV)
   111     111       --         2.570 au  H             1.00      1 D:z2            5
                        (      69.925 eV)
   112     112       --         2.570 au  H             1.00      1 D:x2-y2         5
                        (      69.925 eV)
   113     113       --         2.570 au  H             1.00      1 D:xy            5
                        (      69.925 eV)
   114     114       --         2.570 au  H             1.00      1 D:xz            5
                        (      69.925 eV)
   115     115       --         2.570 au  H             1.00      1 D:yz            5
                        (      69.925 eV)
   116     116      1.000      -0.240 au  H             1.00      1 S               6
                        (      -6.532 eV)
   117     117       --         0.088 au  H             1.00      2 S               6
                        (       2.394 eV)
   118     118       --         1.502 au  H             1.00      3 S               6
                        (      40.877 eV)
   119     119       --         0.406 au  H             1.00      1 P:x             6
                        (      11.052 eV)
   120     120       --         0.406 au  H             1.00      1 P:y             6
                        (      11.052 eV)
   121     121       --         0.406 au  H             1.00      1 P:z             6
                        (      11.052 eV)
   122     122       --         2.570 au  H             1.00      1 D:z2            6
                        (      69.925 eV)
   123     123       --         2.570 au  H             1.00      1 D:x2-y2         6
                        (      69.925 eV)
   124     124       --         2.570 au  H             1.00      1 D:xy            6
                        (      69.925 eV)
   125     125       --         2.570 au  H             1.00      1 D:xz            6
                        (      69.925 eV)
   126     126       --         2.570 au  H             1.00      1 D:yz            6
                        (      69.925 eV)
   127     127      1.000      -0.240 au  H             1.00      1 S               7
                        (      -6.532 eV)
   128     128       --         0.088 au  H             1.00      2 S               7
                        (       2.394 eV)
   129     129       --         1.502 au  H             1.00      3 S               7
                        (      40.877 eV)
   130     130       --         0.406 au  H             1.00      1 P:x             7
                        (      11.052 eV)
   131     131       --         0.406 au  H             1.00      1 P:y             7
                        (      11.052 eV)
   132     132       --         0.406 au  H             1.00      1 P:z             7
                        (      11.052 eV)
   133     133       --         2.570 au  H             1.00      1 D:z2            7
                        (      69.925 eV)
   134     134       --         2.570 au  H             1.00      1 D:x2-y2         7
                        (      69.925 eV)
   135     135       --         2.570 au  H             1.00      1 D:xy            7
                        (      69.925 eV)
   136     136       --         2.570 au  H             1.00      1 D:xz            7
                        (      69.925 eV)
   137     137       --         2.570 au  H             1.00      1 D:yz            7
                        (      69.925 eV)



 ================================
 (Slater-type)  F U N C T I O N S  ***  (Basis and Fit)  ***
 ================================
  

 Atom Type    1  (C)
 ==============

 Valence Basis Sets:  10
 -----------------------
   1 S    7.680000
   1 S    5.000000
   2 S    1.280000
   2 S    2.100000
   2 S    4.600000
   2 P    0.820000
   2 P    1.480000
   2 P    2.940000
   3 D    2.200000
   4 F    3.300000

 Atom Type    2  (N)
 ==============

 Valence Basis Sets:  10
 -----------------------
   1 S    8.740000
   1 S    5.900000
   2 S    5.150000
   2 S    2.500000
   2 S    1.500000
   2 P    3.680000
   2 P    1.880000
   2 P    1.000000
   3 D    2.200000
   4 F    3.300000

 Atom Type    3  (O)
 ==============

 Valence Basis Sets:  10
 -----------------------
   1 S    9.800000
   1 S    6.800000
   2 S    7.580000
   2 S    2.880000
   2 S    1.720000
   2 P    4.080000
   2 P    2.080000
   2 P    1.120000
   3 D    2.000000
   4 F    3.000000

 Atom Type    4  (H)
 ==============

 Valence Basis Sets:   5
 -----------------------
   1 S    0.690000
   1 S    0.920000
   1 S    1.580000
   2 P    1.250000
   3 D    2.500000


 BAS: List of all Elementary Cartesian Basis Functions
 =====================================================

 The numbering in the list below (to the right of the function characteristics) is referred
 to in print-outs of MO eigenvectors and Mulliken populations in the BAS representation
 (as contrasted to the SFO representation).

 Notes:
 1. The functions are characterized by a polynomial prefactor (powers of x,y,z and r) and
    an exponential decay factor alpha.
 2. Since the basis sets are specific for an atom TYPE, the individual functions occur on
    all atoms of that type.
 3. The word 'Core' in the left margin signals that it is a Core Function (CF) : not a
    degree of freedom in the valence set, but only used to ensure orthogonalization of
    the other valence basis functions on the frozen Core Orbitals.


 (power of) X  Y  Z  R     Alpha  on Atom
            ==========     =====     ==========

 C                                    1
                                  ---------------------------------------------------------------------------
            0  0  0  0     7.680      1
            0  0  0  0     5.000      2
            0  0  0  1     1.280      3
            0  0  0  1     2.100      4
            0  0  0  1     4.600      5
            1  0  0  0     0.820      6
            0  1  0  0     0.820      7
            0  0  1  0     0.820      8
            1  0  0  0     1.480      9
            0  1  0  0     1.480     10
            0  0  1  0     1.480     11
            1  0  0  0     2.940     12
            0  1  0  0     2.940     13
            0  0  1  0     2.940     14
            2  0  0  0     2.200     15
            1  1  0  0     2.200     16
            1  0  1  0     2.200     17
            0  2  0  0     2.200     18
            0  1  1  0     2.200     19
            0  0  2  0     2.200     20
            3  0  0  0     3.300     21
            2  1  0  0     3.300     22
            2  0  1  0     3.300     23
            1  2  0  0     3.300     24
            1  1  1  0     3.300     25
            1  0  2  0     3.300     26
            0  3  0  0     3.300     27
            0  2  1  0     3.300     28
            0  1  2  0     3.300     29
            0  0  3  0     3.300     30

 N                                    2
                                  ---------------------------------------------------------------------------
            0  0  0  0     8.740     31
            0  0  0  0     5.900     32
            0  0  0  1     5.150     33
            0  0  0  1     2.500     34
            0  0  0  1     1.500     35
            1  0  0  0     3.680     36
            0  1  0  0     3.680     37
            0  0  1  0     3.680     38
            1  0  0  0     1.880     39
            0  1  0  0     1.880     40
            0  0  1  0     1.880     41
            1  0  0  0     1.000     42
            0  1  0  0     1.000     43
            0  0  1  0     1.000     44
            2  0  0  0     2.200     45
            1  1  0  0     2.200     46
            1  0  1  0     2.200     47
            0  2  0  0     2.200     48
            0  1  1  0     2.200     49
            0  0  2  0     2.200     50
            3  0  0  0     3.300     51
            2  1  0  0     3.300     52
            2  0  1  0     3.300     53
            1  2  0  0     3.300     54
            1  1  1  0     3.300     55
            1  0  2  0     3.300     56
            0  3  0  0     3.300     57
            0  2  1  0     3.300     58
            0  1  2  0     3.300     59
            0  0  3  0     3.300     60

 O                                    3    4
                                  ---------------------------------------------------------------------------
            0  0  0  0     9.800     61   91
            0  0  0  0     6.800     62   92
            0  0  0  1     7.580     63   93
            0  0  0  1     2.880     64   94
            0  0  0  1     1.720     65   95
            1  0  0  0     4.080     66   96
            0  1  0  0     4.080     67   97
            0  0  1  0     4.080     68   98
            1  0  0  0     2.080     69   99
            0  1  0  0     2.080     70  100
            0  0  1  0     2.080     71  101
            1  0  0  0     1.120     72  102
            0  1  0  0     1.120     73  103
            0  0  1  0     1.120     74  104
            2  0  0  0     2.000     75  105
            1  1  0  0     2.000     76  106
            1  0  1  0     2.000     77  107
            0  2  0  0     2.000     78  108
            0  1  1  0     2.000     79  109
            0  0  2  0     2.000     80  110
            3  0  0  0     3.000     81  111
            2  1  0  0     3.000     82  112
            2  0  1  0     3.000     83  113
            1  2  0  0     3.000     84  114
            1  1  1  0     3.000     85  115
            1  0  2  0     3.000     86  116
            0  3  0  0     3.000     87  117
            0  2  1  0     3.000     88  118
            0  1  2  0     3.000     89  119
            0  0  3  0     3.000     90  120

 H                                    5    6    7
                                  ---------------------------------------------------------------------------
            0  0  0  0     0.690    121  133  145
            0  0  0  0     0.920    122  134  146
            0  0  0  0     1.580    123  135  147
            1  0  0  0     1.250    124  136  148
            0  1  0  0     1.250    125  137  149
            0  0  1  0     1.250    126  138  150
            2  0  0  0     2.500    127  139  151
            1  1  0  0     2.500    128  140  152
            1  0  1  0     2.500    129  141  153
            0  2  0  0     2.500    130  142  154
            0  1  1  0     2.500    131  143  155
            0  0  2  0     2.500    132  144  156

 Total number of charge fitting functions (nprimf)       486
 Total number of Cartesian basis functions (naos)        156
 Total number of Cartesian core functions  (ncos)          0

1
 ***************************************************************************************************



                                              ***********************
                                              *  T E C H N I C A L  *
                                              ***********************
  



 =============================================================
 P A R A L L E L I Z A T I O N  and  V E C T O R I Z A T I O N
 =============================================================
  
 Nr of parallel processes:                               12
 Maximum vector length in NumInt loops:                 128



 =====================
 S C F   U P D A T E S
 =====================
  
 Max. nr. of cycles:                               300
 Convergence criterion:                              0.0000010000
   secondary criterion:                              0.0010000000

 Mix parameter (when DIIS does not apply):           0.2000000000
 Mixed ADIIS+SDIIS will be used                  
    Max number of expansion vectors:                10
    Pure ADIIS when Max([F,P]) is above              0.1000000000
    Pure SDIIS when Max([F,P]) is below              0.0010000000
 Automatic ElectronSmearing (in case of problematic SCF convergence) disabled



 =================
 P R E C I S I O N  ***  (General: NumInt, NeglectFunctionTails, ...)  ***
 =================
  

 NumInt:           Target precision:                 4.0000000000
 -------           Initial precision:                4.0000000000
                   Min. precision (optimization):    4.0000000000

 Neglect Functions:          Basis functions:        0.1000000000E-05
 ------------------          Fit functions:          0.1000000000E-05



 ===========================
 L I N E A R   S C A L I N G
 ===========================
  

 Cut-off radii density fit:                        0.1000000000E-07
 Overlap cut-off criterion AO matrix elements:     0.1000000000E-05
 Cut-offs for Coulomb potential and fitted density:0.1000000000E-07
 Cut-off criterion for Coulomb multipole terms:    0.1000000000E-07
 Progressive Convergence parameter:                 0.000000000    

 Number of elements of the density matrix on this node (used, total):      1113     12246



 ===========================================
 Numerical Integration : Fuzzy Cells (Becke)
 ===========================================
  
 Becke grid quality: NORMAL         
  
 Lebedev angular grid order:             min:  11 max:  23
 Nr. of radial points:                   min:  46 max:  52

 Total nr. of points:      45344
 Nr. of blocks:              355
 Block length:               128
 Nr. of dummy points:         96


 Test of Precision of the Numerical Integration Grid
 ===================================================

 Integral of the Total Core Density:                   0.00000000000000



 ========================
 Density Fitting (zlmFit)
 ========================
  
 ZlmFit Fit Quality: NORMAL         
  
 Max L-expansion:                        min:   6 max:   7
 Nr. of radial interpolation points:     min:  39 max:  54



 =====
 S C F  ***  ScaSCF  ***
 =====
  
 Initial density matrix is taken from previous geometry

 CYCLE    1
  ***********************************************************
  ** : orbital data taken from :/tmp/amstmp_ams_kid0.1644806453/GOStep7.rkf
  ***********************************************************
 SCF Error: norm([F,P])=      0.000000030167, max([F,P])=      0.000000006297
 orbitals (Q,E):
 ---------------
 A :7...26           ( 2.00    -0.7411)  ( 2.00    -0.5685)  ( 2.00    -0.4959)  ( 2.00    -0.4863)
                     ( 2.00    -0.4699)  ( 2.00    -0.4095)  ( 2.00    -0.3932)  ( 2.00    -0.2894)
                     ( 2.00    -0.2700)  ( 2.00    -0.2552)  ( 0.00    -0.1213)  ( 0.00    -0.0175)
                     ( 0.00     0.0301)  ( 0.00     0.0374)  ( 0.00     0.0392)  ( 0.00     0.1088)
                     ( 0.00     0.1244)  ( 0.00     0.1300)  ( 0.00     0.1974)  ( 0.00     0.2298)

 CYCLE    2
  SDIIS (wt  0.000):  0.5534  0.4466
 A-DIIS (wt  1.000):  0.0000  1.0000
  DIIS coefficients:  0.0000  1.0000
 SCF Error: norm([F,P])=      0.000000036477, max([F,P])=      0.000000007777
 orbitals (Q,E):
 ---------------
 A :7...17           ( 2.00    -0.7411)  ( 2.00    -0.5685)  ( 2.00    -0.4959)  ( 2.00    -0.4863)
                     ( 2.00    -0.4699)  ( 2.00    -0.4095)  ( 2.00    -0.3932)  ( 2.00    -0.2894)
                     ( 2.00    -0.2700)  ( 2.00    -0.2552)  ( 0.00    -0.1213)

 SCF CONVERGED

 CYCLE    3
1
 ***************************************************************************************************



                                                *******************
                                                *  R E S U L T S  *
                                                *******************
  
 *** Using FIT density in Focky
  SDIIS (wt  0.000):  1.0640 -0.0640
 A-DIIS (wt  1.000):  0.0000  1.0000
  DIIS coefficients:  0.0000  1.0000
 SCF Error: norm([F,P])=      0.000000079835, max([F,P])=      0.000000024520

 Orbital Energies, per Irrep and Spin:
 ======================================
                        Occup              E (au)              E (eV)       Diff (eV) with prev. cycle
                        -----      --------------------        ------       --------------------------
 A
               7        2.000     -0.74113334294403E+00       -20.167              -1.74E-07
               8        2.000     -0.56849925294764E+00       -15.470               7.53E-08
               9        2.000     -0.49587670981464E+00       -13.493               4.19E-08
              10        2.000     -0.48632237828911E+00       -13.234               1.75E-07
              11        2.000     -0.46990947970152E+00       -12.787               3.70E-07
              12        2.000     -0.40952599004187E+00       -11.144              -1.35E-07
              13        2.000     -0.39323957241535E+00       -10.701              -1.79E-07
              14        2.000     -0.28943233678148E+00        -7.876               5.65E-07
              15        2.000     -0.27004431452791E+00        -7.348               4.24E-07
              16        2.000     -0.25515866774359E+00        -6.943               5.55E-07
              17        0.000     -0.12125653729112E+00        -3.300
              18        0.000     -0.17482361078976E-01        -0.476
              19        0.000      0.30121941297997E-01         0.820
              20        0.000      0.37421399456434E-01         1.018
              21        0.000      0.39228929344665E-01         1.067
              22        0.000      0.10878333304349E+00         2.960
              23        0.000      0.12440960826184E+00         3.385
              24        0.000      0.12999398648198E+00         3.537
              25        0.000      0.19744365340028E+00         5.373
              26        0.000      0.22982415650056E+00         6.254
  
 HOMO :       16 A                -0.25515866774359E+00
 LUMO :       17 A                -0.12125653729112E+00
  


 All Electron Calculation, thus no Orbital Energies of the Core Orbitals are calculated


 Fit test: (difference of exact and fit density, squared integrated, result summed over spins)
         Sum-of-Fragments:                             0.00000000046194
         Orthogonalized Fragments:                     0.00004063481338
         SCF:                                          0.00008263135533



 ==========================
 Electron Density at Nuclei
 ==========================
  
 The electron density is calculated at points on a small sphere around the center of a nucleus.
 The printed electron density is the average electron density on these points.
 The radius of the sphere is the printed approximate finite nuclear radius.

         Atom        Nuclear Radius (Angstrom)             Electron Density (a.u.)
         ----        -------------------------             -----------------------
     1)   C                 0.0000320678                              126.53901
     2)   N                 0.0000333706                              205.01293
     3)   O                 0.0000345546                              311.83704
     4)   O                 0.0000345546                              311.84055
     5)   H                 0.0000181514                                0.50687
     6)   H                 0.0000181514                                0.50693
     7)   H                 0.0000181514                                0.50342



 =======================================
 M U L L I K E N   P O P U L A T I O N S
 =======================================
  
 The survey below gives for each atom:
 a) the total charge (Z minus electrons)
 b) the net spin polarization (nr of electrons spin-A minus spin-B)
 c) for each spin the atomic electron valence density (integrated) per L-value.

 Atom              Charge    Spin density          S         P         D         F
 ----              ------    ------------       ------    ------    ------    ------
 1 C               0.6804                       2.8096    2.4617    0.0453    0.0029
 2 N               0.5182                       3.2453    3.0136    0.2100    0.0128
 3 O              -0.3805                       3.8475    4.4604    0.0643    0.0084
 4 O              -0.3807                       3.8477    4.4604    0.0643    0.0084
 5 H              -0.1529                       1.0710    0.0761    0.0058    0.0000
 6 H              -0.1528                       1.0708    0.0762    0.0058    0.0000
 7 H              -0.1318                       1.0439    0.0819    0.0060    0.0000

 Populations of individual BAS functions
 ----------------------------------------
 1 C            0.4961  1.4992 -0.0917  0.9597 -0.0537 -0.0332 -0.1937 -0.1461  0.6031  0.8426
                0.8185  0.1499  0.2125  0.2081  0.0136  0.0068  0.0066  0.0062  0.0060  0.0061
                0.0053  0.0006  0.0009 -0.0024  0.0002 -0.0017  0.0001  0.0001 -0.0002 -0.0000
 2 N            0.5345  1.4531 -0.0474  1.0280  0.2772  0.1754  0.1804  0.1611  0.8992  0.7362
                0.8075 -0.0593 -0.0189  0.1321  0.0447  0.0612  0.0127  0.0593  0.0476 -0.0155
                0.0019  0.0038  0.0024  0.0058  0.0017 -0.0050  0.0106  0.0070 -0.0081 -0.0073
 3 O            0.6488  1.3082  0.0137  1.0474  0.8294  0.3209  0.2550  0.2539  0.9264  0.7850
                0.7834  0.4556  0.3094  0.3709  0.0020  0.0192  0.0059  0.0201  0.0151  0.0019
               -0.0044 -0.0025 -0.0003  0.0096  0.0014 -0.0025  0.0115  0.0074 -0.0061 -0.0057
 4 O            0.6490  1.3078  0.0139  1.0473  0.8297  0.3297  0.2462  0.2539  0.9458  0.7656
                0.7836  0.4802  0.2845  0.3708 -0.0001  0.0179  0.0044  0.0236  0.0167  0.0019
               -0.0064 -0.0048 -0.0015  0.0108  0.0011 -0.0019  0.0145  0.0089 -0.0067 -0.0057
 5 H            0.0640  0.6944  0.3126  0.0143  0.0358  0.0259 -0.0042  0.0014  0.0004  0.0086
                0.0015 -0.0018
 6 H            0.0629  0.6954  0.3125  0.0150  0.0351  0.0260 -0.0032  0.0014  0.0005  0.0075
                0.0014 -0.0018
 7 H            0.0051  0.7286  0.3101  0.0186  0.0256  0.0377 -0.0034  0.0002  0.0015 -0.0069
                0.0021  0.0124

 Gross Charges per Atom (Z minus electrons)
 ==========================================
             0.6804    0.5182   -0.3805   -0.3807   -0.1529   -0.1528   -0.1318
 Net Total:  0.00000000


 Atom-Atom Population Matrix (off-diagonal elements not doubled)
 ===============================================================

     1 :     3.9724
     2 :     0.3885    5.1968
     3 :    -0.0621    0.4708    8.0843
     4 :    -0.0617    0.4708   -0.1006    8.0841
     5 :     0.3528   -0.0194   -0.0115    0.0094    0.9532
     6 :     0.3528   -0.0191    0.0092   -0.0116   -0.0758    0.9530
     7 :     0.3769   -0.0066   -0.0096   -0.0098   -0.0560   -0.0557    0.8926



 =================================================
 H I R S H F E L D   C H A R G E   A N A L Y S I S
 =================================================
  
 For each fragment: the (numerical) integral of rho(scf) * rho(fragment)/rho(sum-of-fragments)
 (nuclear charges are included, electrons are counted negative)

 The fragments and their ordering are defined in the early G E O M E T R Y output section.
 If you use single-atom fragments, this usually implies that all atoms of the same
 chemical type are grouped together. This may not be the order in which you listed them
 in the input file!

    1  C                        -0.0380
    2  N                         0.2133
    3  O                        -0.1844
    4  O                        -0.1845
    5  H                         0.0621
    6  H                         0.0622
    7  H                         0.0692

 Sum of these charges (accuracy NumInt/Tails) =          -0.00000269



 =============================
 V O R O N O I   C H A R G E S
 =============================
  
 For each atom: the (numerical) integral of the total electronic charge density in its Voronoi cell,
 i.e. the region of space that is closer to that atom than to any other atom.
 (cf. Wigner-Seitz cells in crystals)

 Within the Voronoi cell the subintegrals over the atomic sphere and the remaining part are evaluated
 separately to give the numbers of electrons (negative charge) in these regions.
 The net total charge in the cell (including the nuclear charge) is also given.

 Values are provided for
    a) the Initial (sum-of-fragments) density
    b) the Orthogonalized-Fragments density
    c) the SCF density
    d) the Voronoi Deformation Density (VDD): the difference SCF-Initial for the complete atomic cell


  Atom                Initial                    OrthFrag                   SCF
             Sphere RestCell NetTotal   Sphere RestCell NetTotal   Sphere RestCell NetTotal      VDD
 -----       ------------------------   ------------------------   ------------------------    -----
    1 C      -2.270   -2.213    1.517   -2.440   -2.457    1.103   -2.304   -2.218    1.478   -0.039
    2 N      -2.947   -3.884    0.169   -3.307   -3.546    0.147   -2.949   -3.641    0.410    0.241
    3 O      -3.308   -4.782   -0.090   -3.486   -4.587   -0.072   -3.334   -4.965   -0.299   -0.209
    4 O      -3.308   -4.802   -0.110   -3.486   -4.600   -0.086   -3.335   -4.984   -0.319   -0.209
    5 H      -0.076   -1.414   -0.490   -0.098   -1.263   -0.361   -0.110   -1.314   -0.424    0.066
    6 H      -0.076   -1.425   -0.501   -0.098   -1.271   -0.369   -0.110   -1.323   -0.433    0.068
    7 H      -0.075   -1.419   -0.494   -0.097   -1.265   -0.363   -0.108   -1.305   -0.413    0.081
 ---------------------------------------------------------------------------------------------------
 Total NetCharge:              -0.000                      0.000                     -0.000    0.000
 (accuracy NumInt/Tails)

 Remark: the 'NetTotal' Voronoi charges often do not match the Mulliken and/or Hirshfeld charges very
 well. This is caused by the fact that chemically different atoms are not treated in accordance with
 their relative sizes. (Voronoi cells are defined by boundary planes halfway between the atoms.)
 However, the CHANGES in charge, comparing 'Initial' to 'SCF' for instance, do give a fair indication
 of the flow of charge caused by the relaxation from sum-of-fragments to self-consistency.

 Warning: the absolute accuracy of the VDD charges obtained using the Fuzzy Cells (Becke) integration
 scheme is much poorer than the one obtained with an 'equivalent' Voronoi integration grid. 



 =================================================================
 M U L T I P O L E   D E R I V E D   C H A R G E   A N A L Y S I S
 =================================================================

 This charge analysis uses the atomic multipoles (obtained from the fitted density) up to some level X,
 and reconstructs these multipoles exactly (up to level X) by distributing charges over all atoms.
 This is achieved by using Lagrange multipliers and a weight function to keep the multipoles local.

 Dummy atoms can be included (by setting INCDUM in MDC-block to 1) to obtain a fractional charge.
 This is generally useful and necessary only for small symmetrical molecules, when there are not
 enough degrees of freedom to reconstruct the multipoles.

 Since the atomic multipoles are reconstructed up to level X,
 the molecular multipoles are represented also up to level X.
 The recommended level is to reconstruct up to quadrupole : -> MDC-q charges.

 See: M. Swart, P.Th. van Duijnen, J.G. Snijders, J.Comput.Chem., (2001), p. 79-88.

 ------------------------------------------------------------- 
 Atomic electronic multipole moments from SCF equations (a.u.)
 ------------------------------------------------------------- 

   atom        charge        dip-x     dip-y     dip-z      quad-xx   quad-xy   quad-xz   quad-yy   quad-yz   quad-zz
 --------------------------------------------------------------------------------------------------------------------
    1 C      0.330499     0.018081 -0.000857 -0.012420     0.008968  0.000670 -0.003822  0.024491  0.000369 -0.033460
    2 N      0.304627     0.073335 -0.003337 -0.004299     0.096087  0.003178 -0.001324  0.208751  0.001929 -0.304838
    3 O     -0.274939    -0.133718 -0.274916  0.003803    -0.247241  0.360282 -0.000493  0.394215 -0.004632 -0.146974
    4 O     -0.274945    -0.107652  0.286095  0.006507    -0.340729 -0.315623 -0.003119  0.487651  0.008527 -0.146923
    5 H     -0.029596     0.002277  0.020612  0.010115    -0.051490 -0.042656 -0.021937  0.098030  0.077415 -0.046540
    6 H     -0.029621     0.000239 -0.020689  0.010282    -0.038733  0.050959 -0.029293  0.083620 -0.075706 -0.044887
    7 H     -0.026026    -0.000592 -0.000051 -0.024730    -0.051726 -0.001773  0.047585 -0.113295 -0.001661  0.165021

 --------------------------------------- 
 Multipole derived atomic charges (a.u.)
 --------------------------------------- 

 The MDC-m charges are just the Monopole terms in the multipole expansion, while for the MDC-d charges
 also the Dipoles are reconstructed. The usually preferred charges are the MDC-q charges.
 These reconstruct the Monopoles, Dipoles and Quadrupoles (both atomic AND molecular).

        Atom    Level:     MDC-m        MDC-d        MDC-q
 ---------------------------------------------------------
     1     C            0.330499     0.272684     1.333056
     2     N            0.304627     0.456443     0.349635
     3     O           -0.274939    -0.345356    -0.371221
     4     O           -0.274945    -0.345457    -0.376762
     5     H           -0.029596    -0.016267    -0.325873
     6     H           -0.029621    -0.016265    -0.327726
     7     H           -0.026026    -0.005783    -0.281109

 ------------------------------------------------ 
 Average absolute deviations in atomic multipoles
 ------------------------------------------------ 

 Stated here are the average differences between the atomic multipoles
 and the reconstructed atomic multipoles (from the distributed charges).
 If these values are not zero, this means there are not enough degrees of freedom,
 to be able to reconstruct the atomic multipoles. (This usually happens only
 for small and/or highly symmetric molecules). If this is the case, one could add
 dummy atoms as extra point charges (and setting INCDUM in MDC-block to 1).

 Level:                                 MDC-d        MDC-q
 ---------------------------------------------------------
 Charge   (a.u.)                       0.0000       0.0000
 Dipole   (Debye)                      0.0000       0.0323
 Quad.    (a.u.)                       0.0896       0.0041

 --------------------------------------- 
 Represented molecular multipole moments
 --------------------------------------- 

 Given here are the Molecular multipole moments from the atomic charges, and from the Fit Density.
 Note that the atomic charges represent the latter, NOT the ones from the Exact density.

            Q (a.u.)             Dipole moment (Debye)                                          Quadrupole moment (a.u.)
                                 x         y         z              xx        xy        xz        yy        yz        zz
------------------------------------------------------------------------------------------------------------------------
MDC-m         0.0000       -3.1445    0.1452    0.0394          0.2585   -0.7068    0.0304   -1.9102   -0.0111    1.6517
MDC-d         0.0000       -3.5208    0.1627    0.0121          0.1493   -0.7926    0.0959   -2.3298   -0.0237    2.1805
MDC-q        -0.0000       -3.4570    0.1966   -0.0791         -0.2029   -0.7516    0.2951   -2.4868   -0.0477    2.6897
 
Fit.Dens.     0.0000       -3.5208    0.1627    0.0121         -0.2287   -0.8140    0.1077   -2.5428   -0.0313    2.7715



 =============
 Dipole Moment  ***  (Debye)  ***
 =============
  
 Vector   :        -3.53657912      0.16306626      0.01165304
 Magnitude:         3.54035567

 This molecular dipole moment is calculated with analytic integration



 =========================================
 Quadrupole Moment (Buckingham convention)  ***  (a.u.)  ***
 =========================================
  
      quad-xx        quad-xy        quad-xz        quad-yy        quad-yz        quad-zz
     -0.22351502    -0.78964342     0.10166830    -2.54734704    -0.02876768     2.77086206

 This molecular quadrupole moment is calculated with analytic integration
1



 ===========================
 B O N D I N G   E N E R G Y  ***  (decomposition)  ***
 ===========================
  
*** IMPORTANT NOTE ***

The bond energy is computed as an energy difference between molecule and
fragments. In particular when the fragments are single atoms, they are usually
computed as SPHERICALLY SYMMETRIC and SPIN-RESTRICTED. Obviously, this usually
does NOT represent the true atomic groundstate.

To obtain the 'real' bond energy, (atomic) correction terms must be applied
for the true (multiplet) fragment ground state. See ref: E.J.Baerends,
V.Branchadell, M.Sodupe, Chem.Phys.Lett.265 (1997) 481

General theoretical background on the bond energy decomposition scheme used
here (Morokuma-Ziegler) can be found in the review paper:
F.M. Bickelhaupt and E.J. Baerends,
"Kohn-Sham Density Functional Theory: Predicting and Understanding Chemistry"
In: Rev. Comput. Chem.; Lipkowitz, K. B. and Boyd, D. B., Eds.;
Wiley-VCH: New York, 2000, Vol. 15, 1-86.

Symbols used in the Bickelhaupt-Baerends (BB) paper are given below to make
the direct connection to that paper, where detailed explanations can be found
on the meaning of the various terms.


                                                   hartree              eV         kcal/mol           kJ/mol
                                      --------------------     -----------       ----------      -----------

Pauli Repulsion
  Kinetic (Delta T^0):                  15.747484546211533        428.5109          9881.70         41345.01
  Delta V^Pauli Coulomb:                -8.327779256789007       -226.6104         -5225.76        -21864.58
  Delta V^Pauli LDA-XC:                 -1.843631633244876        -50.1678         -1156.90         -4840.45
  Delta V^Pauli GGA-Exchange:            0.108299263515955          2.9470            67.96           284.34
  Delta V^Pauli GGA-Correlation:        -0.127299798667084         -3.4640           -79.88          -334.23
                                      --------------------     -----------       ----------      -----------
  Total Pauli Repulsion:                 5.557073121026519        151.2157          3487.12         14590.09
 (Total Pauli Repulsion =
  Delta E^Pauli in BB paper)

Steric Interaction
  Pauli Repulsion (Delta E^Pauli):       5.557073121026519        151.2157          3487.12         14590.09
  Electrostatic Interaction:            -1.181744923159931        -32.1569          -741.56         -3102.67
 (Electrostatic Interaction =
  Delta V_elstat in the BB paper)
                                      --------------------     -----------       ----------      -----------
  Total Steric Interaction:              4.375328197866589        119.0587          2745.56         11487.42
 (Total Steric Interaction =
  Delta E^0 in the BB paper)

Orbital Interactions
  A:                                    -5.751076548904317       -156.4948         -3608.86        -15099.45
                                      --------------------     -----------       ----------      -----------
  Total Orbital Interactions:           -5.751076548904318       -156.4948         -3608.86        -15099.45

Alternative Decomposition Orb.Int.
  Kinetic:                             -14.437626928369546       -392.8678         -9059.75        -37905.98
  Coulomb:                               8.078120914430910        219.8169          5069.10         21209.10
  XC:                                    0.608429465034320         16.5562           381.80          1597.43
                                      --------------------     -----------       ----------      -----------
  Total Orbital Interactions:           -5.751076548904317       -156.4948         -3608.86        -15099.45

  Residu (E=Steric+OrbInt+Res):         -0.000085162398663         -0.0023            -0.05            -0.22

Total Bonding Energy:                   -1.375833513436392        -37.4383          -863.35         -3612.25


Summary of Bonding Energy (energy terms are taken from the energy decomposition above)
======================================================================================

  Electrostatic Energy:                 -1.181744923159931        -32.1569          -741.56         -3102.67
  Kinetic Energy:                        1.309857617841987         35.6430           821.95          3439.03
  Coulomb (Steric+OrbInt) Energy:       -0.249743504756761         -6.7959          -156.72          -655.70
  XC Energy:                            -1.254202703361684        -34.1286          -787.02         -3292.91
                                      --------------------     -----------       ----------      -----------
  Total Bonding Energy:                 -1.375833513436390        -37.4383          -863.35         -3612.25


Correction terms (incorporated in energies above; only for test purposes):

1. Indication of fit-quality: 1st-order fit-correction used in the energy (hartree):   0.0002831329
2. Electrostatic (Fit correction):   0.0000000000



 =========================================
 F R A G M E N T   E N E R G Y   T E R M S  ***  (summed over all fragments)  ***
 =========================================
  

The energy terms below are (parts of) the Total Energy of the fragments from which the molecule
 is built.

Exchange and Correlation
  Exchange LDA:                        -25.171718920871047       -684.9573        -15795.49        -66088.34
  Exchange GGA:                         -3.056097288499007        -83.1606         -1917.73         -8023.78
  Correlation LDA:                       0.000000000000000          0.0000             0.00             0.00
  Correlation GGA:                      -0.988278807175908        -26.8924          -620.15         -2594.73
[...]
    3       3          1       0.15352479D-01
    3       3          2       0.31709169D-02
    3       3          3       0.76334910D-03
    3       3          4       0.21386428D-03
    3       3          5       0.92780836D-04
    3       3          6       0.13796816D-04
    3       3          7       0.43745696D-05
*** CPKS converged.
----------------------------------------------

====================  end of solving CPKS equations  ====================

==========================
###### NUCLEUS:     4  O  
==========================

====================  solving CPKS equations  ====================

NUCLEUS  COORD.    ITERATION   ACCURACY
-------  ------    ---------   --------
    4       1          1       0.28357180D-01
    4       1          2       0.53060304D-02
    4       1          3       0.19567677D-02
    4       1          4       0.79318074D-03
    4       1          5       0.14392903D-03
    4       1          6       0.45333591D-04
    4       1          7       0.98449671D-05
*** CPKS converged.
----------------------------------------------
    4       2          1       0.13344442D+00
    4       2          2       0.80706843D-02
    4       2          3       0.41733875D-02
    4       2          4       0.56228803D-03
    4       2          5       0.96920409D-04
    4       2          6       0.77593816D-04
    4       2          7       0.14813031D-04
    4       2          8       0.16212552D-05
*** CPKS converged.
----------------------------------------------
    4       3          1       0.15658583D-01
    4       3          2       0.81105063D-03
    4       3          3       0.58178482D-03
    4       3          4       0.17205281D-03
    4       3          5       0.97454191D-04
    4       3          6       0.11507961D-04
    4       3          7       0.33149924D-05
*** CPKS converged.
----------------------------------------------

====================  end of solving CPKS equations  ====================

==========================
###### NUCLEUS:     5  H  
==========================

====================  solving CPKS equations  ====================

NUCLEUS  COORD.    ITERATION   ACCURACY
-------  ------    ---------   --------
    5       1          1       0.10272840D-01
    5       1          2       0.32688621D-02
    5       1          3       0.13379981D-02
    5       1          4       0.29100461D-03
    5       1          5       0.78577226D-04
    5       1          6       0.15338288D-04
    5       1          7       0.37935065D-05
*** CPKS converged.
----------------------------------------------
    5       2          1       0.14691722D-01
    5       2          2       0.35696831D-02
    5       2          3       0.11891801D-02
    5       2          4       0.33120272D-03
    5       2          5       0.70190867D-04
    5       2          6       0.25715122D-04
    5       2          7       0.66637795D-05
*** CPKS converged.
----------------------------------------------
    5       3          1       0.64321305D-02
    5       3          2       0.23402173D-02
    5       3          3       0.55409237D-03
    5       3          4       0.30398896D-03
    5       3          5       0.13050651D-03
    5       3          6       0.37219016D-04
    5       3          7       0.38244020D-05
*** CPKS converged.
----------------------------------------------

====================  end of solving CPKS equations  ====================

==========================
###### NUCLEUS:     6  H  
==========================

====================  solving CPKS equations  ====================

NUCLEUS  COORD.    ITERATION   ACCURACY
-------  ------    ---------   --------
    6       1          1       0.11449693D-01
    6       1          2       0.34917292D-02
    6       1          3       0.13992291D-02
    6       1          4       0.29853831D-03
    6       1          5       0.94726659D-04
    6       1          6       0.15485384D-04
    6       1          7       0.40903178D-05
*** CPKS converged.
----------------------------------------------
    6       2          1       0.13900159D-01
    6       2          2       0.35813770D-02
    6       2          3       0.11060792D-02
    6       2          4       0.30410741D-03
    6       2          5       0.17412745D-03
    6       2          6       0.30848976D-04
    6       2          7       0.72616563D-05
*** CPKS converged.
----------------------------------------------
    6       3          1       0.64792194D-02
    6       3          2       0.22249198D-02
    6       3          3       0.53741577D-03
    6       3          4       0.30775322D-03
    6       3          5       0.13244507D-03
    6       3          6       0.37758574D-04
    6       3          7       0.38106873D-05
*** CPKS converged.
----------------------------------------------

====================  end of solving CPKS equations  ====================

==========================
###### NUCLEUS:     7  H  
==========================

====================  solving CPKS equations  ====================

NUCLEUS  COORD.    ITERATION   ACCURACY
-------  ------    ---------   --------
    7       1          1       0.74436570D-02
    7       1          2       0.23213561D-02
    7       1          3       0.83077970D-03
    7       1          4       0.29619065D-03
    7       1          5       0.15727775D-03
    7       1          6       0.13480849D-04
    7       1          7       0.70263553D-05
*** CPKS converged.
----------------------------------------------
    7       2          1       0.12965857D-01
    7       2          2       0.28160671D-02
    7       2          3       0.29445751D-03
    7       2          4       0.11879439D-03
    7       2          5       0.19654460D-04
    7       2          6       0.60776633D-05
*** CPKS converged.
----------------------------------------------
    7       3          1       0.16486205D-01
    7       3          2       0.30079620D-02
    7       3          3       0.93961702D-03
    7       3          4       0.33512717D-03
    7       3          5       0.19107483D-03
    7       3          6       0.66110968D-04
    7       3          7       0.66339082D-05
*** CPKS converged.
----------------------------------------------

====================  end of solving CPKS equations  ====================


====================================================================
*** DONE CALCULATING ANALYTICAL SECOND DERIVATIVES OF THE ENERGY ***
====================================================================

 Mulliken charges used for AMS results%charges...
Scanning modes in range provided by user.


    =====================
     CALCULATION RESULTS
    =====================

Energy (hartree)            -1.37583351

Gradients (hartree/bohr)
  Index   Atom            d/dx            d/dy            d/dz
      1      C    0.0003778378   -0.0000049987    0.0000780108
      2      N   -0.0003738726   -0.0000119119    0.0001252728
      3      O    0.0000762056    0.0002237243    0.0000325213
      4      O   -0.0000101588   -0.0002675152   -0.0000146105
      5      H    0.0000308888    0.0000293114   -0.0000907782
      6      H   -0.0000127793    0.0000035573   -0.0000986047
      7      H   -0.0000881215    0.0000278329   -0.0000318115

 -----------------------
 Normal Mode Frequencies
 -----------------------

 Index   Frequency (cm-1)   Intensity (km/mol)
     7            60.6397               0.0318
     8           460.2497               0.9213
     9           582.1914               4.2241
    10           617.1547               9.2780
    11           861.2574              16.3947
    12          1070.4933              13.8158
    13          1093.9098               0.4733
    14          1297.4603             103.1720
    15          1375.0812               2.0096
    16          1423.1589              98.3039
    17          1439.8748              11.2316
    18          1493.3364             213.4214
    19          2994.0879               0.7009
    20          3078.6238               2.6286
    21          3111.5390               0.5438

 Zero-point energy (Hartree):     0.0477

 ------------
 Normal Modes
 ------------

 Number of removed rigid normal modes: 6
 
 Mode:     7      Frequency (cm-1):       60.6397     Intensity (km/mol):        0.0318
 Index  Atom      ---- Displacements (x/y/z) ----
     1     C      -0.000297  -0.005969  -0.000286
     2     N       0.000368   0.007410   0.000303
     3     O       0.011227   0.001720   0.051098
     4     O      -0.010971   0.003272  -0.051186
     5     H      -0.012612   0.251665  -0.493458
     6     H       0.035811   0.252953   0.492124
     7     H      -0.028837  -0.615739   0.001917
 
 Mode:     8      Frequency (cm-1):      460.2497     Intensity (km/mol):        0.9213
 Index  Atom      ---- Displacements (x/y/z) ----
     1     C      -0.008447  -0.222037  -0.001020
     2     N       0.007376   0.157509   0.000832
     3     O       0.223684   0.040585  -0.009009
     4     O      -0.220870   0.059809   0.009452
     5     H      -0.444510  -0.402092   0.086088
     6     H       0.405606  -0.443104  -0.090481
     7     H      -0.007656  -0.292855  -0.002053
 
 Mode:     9      Frequency (cm-1):      582.1914     Intensity (km/mol):        4.2241
 Index  Atom      ---- Displacements (x/y/z) ----
     1     C      -0.171739   0.007283   0.010459
     2     N      -0.013885   0.002763  -0.357224
     3     O       0.084179  -0.055026   0.130481
     4     O       0.087629   0.046102   0.131010
     5     H       0.133234  -0.021399   0.246621
     6     H       0.144770   0.004806   0.246859
     7     H      -0.766955   0.033125   0.195341
 
 Mode:    10      Frequency (cm-1):      617.1547     Intensity (km/mol):        9.2780
 Index  Atom      ---- Displacements (x/y/z) ----
     1     C      -0.430215   0.018522  -0.010495
     2     N      -0.020048   0.000678   0.224327
     3     O       0.199392  -0.153270  -0.084076
     4     O       0.209974   0.135831  -0.082512
     5     H      -0.537987   0.038174  -0.107766
     6     H      -0.540479   0.008007  -0.109604
     7     H      -0.017424   0.000632  -0.130665
 
 Mode:    11      Frequency (cm-1):      861.2574     Intensity (km/mol):       16.3947
 Index  Atom      ---- Displacements (x/y/z) ----
     1     C      -0.383271   0.017431  -0.005655
     2     N       0.438159  -0.020008   0.008230
     3     O      -0.000083   0.450652  -0.000829
     4     O      -0.041577  -0.448795  -0.005151
     5     H      -0.297709   0.022401   0.039803
     6     H      -0.300090   0.005758   0.040141
     7     H      -0.265420   0.012819  -0.032054
 
 Mode:    12      Frequency (cm-1):     1070.4933     Intensity (km/mol):       13.8158
 Index  Atom      ---- Displacements (x/y/z) ----
     1     C       0.006816   0.154446   0.001915
     2     N       0.000757   0.011614  -0.000875
     3     O      -0.044658  -0.044817  -0.000186
     4     O       0.040359  -0.048628   0.000051
     5     H      -0.663756  -0.101107   0.085786
     6     H       0.641039  -0.166720  -0.094035
     7     H      -0.000725  -0.249479  -0.000242
 
 Mode:    13      Frequency (cm-1):     1093.9098     Intensity (km/mol):        0.4733
 Index  Atom      ---- Displacements (x/y/z) ----
     1     C       0.007175   0.001616  -0.149553
     2     N      -0.006478  -0.000248   0.135587
     3     O      -0.000207   0.003356  -0.023277
     4     O       0.000186  -0.003899  -0.023181
     5     H       0.346338  -0.118875   0.280278
     6     H       0.375923   0.081695   0.275230
     7     H      -0.717346   0.030009   0.078627
 
 Mode:    14      Frequency (cm-1):     1297.4603     Intensity (km/mol):      103.1720
 Index  Atom      ---- Displacements (x/y/z) ----
     1     C       0.145843  -0.006151   0.023952
     2     N      -0.511910   0.022355   0.010987
     3     O       0.215240   0.245388  -0.004338
     4     O       0.191362  -0.263034  -0.006778
     5     H      -0.348362  -0.030247  -0.205781
     6     H      -0.344870   0.059507  -0.210827
     7     H      -0.383702   0.013431   0.155184
 
 Mode:    15      Frequency (cm-1):     1375.0812     Intensity (km/mol):        2.0096
 Index  Atom      ---- Displacements (x/y/z) ----
     1     C      -0.108466   0.004519  -0.001426
     2     N      -0.070751   0.003300  -0.002711
     3     O       0.022067   0.026631   0.000335
     4     O       0.019686  -0.028691   0.000018
     5     H       0.533053   0.131986   0.115276
     6     H       0.522439  -0.178562   0.123290
     7     H       0.556390  -0.020383  -0.189512
 
 Mode:    16      Frequency (cm-1):     1423.1589     Intensity (km/mol):       98.3039
 Index  Atom      ---- Displacements (x/y/z) ----
     1     C      -0.002224  -0.069855  -0.000047
     2     N       0.003979   0.089356   0.000552
     3     O      -0.023011  -0.040678   0.001543
     4     O       0.019349  -0.042744  -0.001980
     5     H      -0.232106   0.095809  -0.397159
     6     H       0.231066   0.081982   0.398295
     7     H       0.030361   0.736383  -0.001315
 
 Mode:    17      Frequency (cm-1):     1439.8748     Intensity (km/mol):       11.2316
 Index  Atom      ---- Displacements (x/y/z) ----
     1     C       0.012260  -0.000428  -0.054340
     2     N      -0.014613   0.001608  -0.021397
     3     O       0.004460   0.004573   0.002598
     4     O       0.004328  -0.005765   0.002596
     5     H      -0.227943  -0.364298   0.498933
     6     H      -0.195308   0.385839   0.492177
     7     H       0.340831  -0.019864  -0.129218
 
 Mode:    18      Frequency (cm-1):     1493.3364     Intensity (km/mol):      213.4214
 Index  Atom      ---- Displacements (x/y/z) ----
     1     C       0.000976   0.010441  -0.000214
     2     N      -0.018379  -0.413175  -0.002071
     3     O       0.079842   0.157395  -0.000909
     4     O      -0.065479   0.164474   0.002494
     5     H      -0.433432   0.026069  -0.280439
     6     H       0.423844  -0.002954   0.289061
     7     H       0.025380   0.485070  -0.002457
 
 Mode:    19      Frequency (cm-1):     2994.0879     Intensity (km/mol):        0.7009
 Index  Atom      ---- Displacements (x/y/z) ----
     1     C       0.040312  -0.002001   0.017721
     2     N       0.000676  -0.000031  -0.000034
     3     O      -0.000249  -0.000282   0.000056
     4     O      -0.000218   0.000304   0.000058
     5     H      -0.125209   0.421739   0.234495
     6     H      -0.162985  -0.404541   0.235874
     7     H      -0.193773   0.006713  -0.682701
 
 Mode:    20      Frequency (cm-1):     3078.6238     Intensity (km/mol):        2.6286
 Index  Atom      ---- Displacements (x/y/z) ----
     1     C      -0.009892   0.000957   0.092124
     2     N       0.000796  -0.000015   0.000015
     3     O      -0.000001  -0.000139   0.000060
     4     O       0.000016   0.000121   0.000058
     5     H       0.131957  -0.440511  -0.218192
     6     H       0.171475   0.422780  -0.219635
     7     H      -0.196961   0.006834  -0.661148
 
 Mode:    21      Frequency (cm-1):     3111.5390     Intensity (km/mol):        0.5438
 Index  Atom      ---- Displacements (x/y/z) ----
     1     C      -0.004579  -0.096443   0.000429
     2     N      -0.000105  -0.002131  -0.000012
     3     O       0.000257   0.000880   0.000115
     4     O      -0.000177   0.000894  -0.000105
     5     H      -0.180671   0.593832   0.327170
     6     H       0.236347   0.575805  -0.332485
     7     H      -0.000972  -0.019855   0.000214

PES point character: Geometry corresponds to a local minimum on the PES.




 ============================
 Statistical Thermal Analysis  ***  ideal gas assumed  ***
 ============================
  
 Pressure:                  1.000000 atm.
 Temperature:             298.150000 K



 Moments of Inertia [amu*bohr^2] and principal axis
 ==================================================

         151.0257        176.0195        315.5467
 ------------------------------------------------
          -0.9988          0.0489          0.0086
           0.0489          0.9988         -0.0052
           0.0089          0.0048          0.9999


 The rotational contribution to the molecular entropy includes
 a term, dependent on the symmetry number sigma. The results 
 reported below were computed using sigma = 1, determined from
 the point group symmetry of the input geometry (NOSYM). 
 If this is not the correct symmetry, try symmetrizing the molecule before
 running the calculation (note: linear molecules should be aligned along one
 of the Cartesian axes).
 Contributions from frequencies below 20 1/cm are not included in vibrational sums.
 Their contributions, if any, are reported separately.


     Temp                                                        Transl      Rotat     Vibrat     Total
     ----                                                        ------      -----     ------     -----

     298.15   Entropy (cal/mol-K):                               38.245     23.643      6.492     68.381
              Nuclear Internal Energy (kcal/mol):                 0.889      0.889     30.930     32.708
              Constant Volume Heat Capacity (cal/mol-K):          2.981      2.981      7.055     13.017
          (c) Constant Volume Heat Capacity (cal/mol-K):          2.981      2.981      6.192     12.153

       Summary of energy terms
                                                   hartree              eV         kcal/mol           kJ/mol
                                      --------------------     -----------       ----------      -----------
      Energy from Engine:               -1.375833513436392        -37.4383          -863.35         -3612.25
      Nuclear Internal Energy:           0.052123256888286          1.4183            32.71           136.85
  (c) Nuclear Internal Energy:           0.051697027410774          1.4067            32.44           135.73
      Internal Energy U:                -1.323710256548106        -36.0200          -830.64         -3475.40
      pV/n = RT:                         0.000944186013486          0.0257             0.59             2.48
      Enthalpy H:                       -1.322766070534620        -35.9943          -830.05         -3472.92
      -T*S:                             -0.032490024908099         -0.8841           -20.39           -85.30
  (c) -T*S:                             -0.032037183218984         -0.8718           -20.10           -84.11
      Gibbs free energy:                -1.355256095442720        -36.8784          -850.44         -3558.22
 
 
 
  (c) The properties marked with this symbol have been corrected using 'low vibrational frequency free rotor
      interpolation corrections'. For those terms all positive frequencies are used (also ones below 20 1/cm),
      but the contribution to the partition function of small vibrational frequencies is modified as described
      in the following paper:
      S. Grimme, 'Supramolecular Binding Thermodynamics by Dispersion-Corrected Density Functional Theory'
      (Chem. Eur. J. 2012, 18, 9955-9964)
      Configuration: Dampener Frequency          :   100.000 1/cm
                     Dampener Alpha              :     4.000
                     Averaging Moment of Inertia : 1.000E-44 kg m2

--------------
Atomic charges
--------------
  Index   Atom    Charge
      1      C    0.6804
      2      N    0.5182
      3      O   -0.3805
      4      O   -0.3807
      5      H   -0.1529
      6      H   -0.1528
      7      H   -0.1318


Dipole moment vector    (Debye):    -3.53657912    0.16306626    0.01165304
              magnitude (Debye):     3.54035567


Final PES point is a local minimum. Geometry optimization successful!


AMS application finished. Exiting.
NORMAL TERMINATION
     Total cpu time:      61.31
  Total system time:       2.37
 Total elapsed time:      66.32
