 argument  1 = /lustre/ukt/milias/work/projects/open-collection/theoretical_chemistry/projects/adsorbate_on_surface/on_quartz/quartz/nwchem/Quartz-G_molecular_slab_153atoms/ecp/Q-G.geopt2_ecp_b3lyp.nw



============================== echo of input deck ==============================
echo

start molecule

print low

title "Q-G ecp"
charge 0

geometry units angstroms print xyz autosym
  load format xyz QG_geom3-090.xyz
end

basis
 * library lanl2dz_ecp
end

ecp
  Si library lanl2dz_ecp
end

dft
  xc b3lyp
  mult 1
  maxiter 100
end

driver
  maxiter 999
  xyz QG_geom4
end

task dft optimize

#task dft frequencies

================================================================================


                                         
                                         


             Northwest Computational Chemistry Package (NWChem) 7.2.0
             --------------------------------------------------------


                    Environmental Molecular Sciences Laboratory
                       Pacific Northwest National Laboratory
                                Richland, WA 99352

                              Copyright (c) 1994-2022
                       Pacific Northwest National Laboratory
                            Battelle Memorial Institute

             NWChem is an open-source computational chemistry package
                        distributed under the terms of the
                      Educational Community License (ECL) 2.0
             A copy of the license is included with this distribution
                              in the LICENSE.TXT file

                                  ACKNOWLEDGMENT
                                  --------------

            This software and its documentation were developed at the
            EMSL at Pacific Northwest National Laboratory, a multiprogram
            national laboratory, operated for the U.S. Department of Energy
            by Battelle under Contract Number DE-AC05-76RL01830. Support
            for this work was provided by the Department of Energy Office
            of Biological and Environmental Research, Office of Basic
            Energy Sciences, and the Office of Advanced Scientific Computing.


           Job information
           ---------------

    hostname        = lxbk0853
    program         = /lustre/ukt/milias/work/software/nwchem/nwchem-7.2.0_gnu_openmpi_openblas/bin/LINUX64/nwchem
    date            = Mon Jul 31 13:31:13 2023

    compiled        = Sun_Jul_02_11:55:06_2023
    source          = /lustre/ukt/milias/work/software/nwchem/nwchem-7.2.0_gnu_openmpi_openblas
    nwchem branch   = 7.2.0
    nwchem revision = v7.2.0-beta1-192-gd0d141fdfb
    ga revision     = 5.8.0
    use scalapack   = F
    input           = /lustre/ukt/milias/work/projects/open-collection/theoretical_chemistry/projects/adsorbate_on_surface/on_quartz/quartz/nwchem/Quartz-G_molecular_slab_153atoms/ecp/Q-G.geopt2_ecp_b3lyp.nw
    prefix          = molecule.
    data base       = ./molecule.db
    status          = startup
    nproc           =      140
    time left       =     -1s



           Memory information
           ------------------

    heap     =   26214398 doubles =    200.0 Mbytes
    stack    =   26214395 doubles =    200.0 Mbytes
    global   =   52428800 doubles =    400.0 Mbytes (distinct from heap & stack)
    total    =  104857593 doubles =    800.0 Mbytes
    verify   = yes
    hardfail = no 


           Directory information
           ---------------------

  0 permanent = .
  0 scratch   = .




                                NWChem Input Module
                                -------------------


                                      Q-G ecp
                                      -------

 Scaling coordinates for geometry "geometry" by  1.889725989
 (inverse scale =  0.529177249)


          ------
          auto-z
          ------
  no constraints, skipping    0.0000000000000000     
  no constraints, skipping    0.0000000000000000     


                             Geometry "geometry" -> ""
                             -------------------------

 Output coordinates in angstroms (scale by  1.889725989 to convert to a.u.)

  No.       Tag          Charge          X              Y              Z
 ---- ---------------- ---------- -------------- -------------- --------------
    1 O                    8.0000     4.93945503    -1.52258545    -3.41968918
    2 H                    1.0000    -1.99516484     5.23348284    -0.99760984
    3 H                    1.0000     4.54839642    -7.44046548     0.90335385
    4 Si                  14.0000    -2.42043170     8.39818353     1.78707213
    5 Si                  14.0000     0.33355017     7.03320282    -1.31134969
    6 Si                  14.0000     3.80345620     4.69974526    -4.30201145
    7 H                    1.0000     1.41448476    -6.01680322    -1.20161300
    8 Si                  14.0000    -3.76634101     4.50160538     0.39006996
    9 Si                  14.0000     0.39136512     2.35980910    -1.55388231
   10 Si                  14.0000     4.19594145    -0.41285568    -2.43142587
   11 H                    1.0000    -1.86121316    -3.41782748    -3.64381959
   12 Si                  14.0000    -4.24355244     0.30034683    -2.39536288
   13 Si                  14.0000    -0.43309037    -2.47431492    -1.53070885
   14 Si                  14.0000     3.52040478    -4.67767143     0.20485879
   15 H                    1.0000    -1.99260233     7.23003245    -0.56518953
   16 Si                  14.0000    -3.76590510    -4.72855721    -4.24751815
   17 Si                  14.0000    -0.76482351    -7.14316699    -1.37116246
   18 Si                  14.0000     2.68204404    -8.45785137     1.98691774
   19 O                    8.0000    -2.57586823     0.29716226    -2.61790948
   20 O                    8.0000     1.56211829     5.07196578     4.45798302
   21 O                    8.0000     5.95634057     4.80548161     1.06909564
   22 O                    8.0000    -1.35986469    -6.66151542    -2.84114348
   23 O                    8.0000     1.18034440    -2.64258074    -2.01436657
   24 O                    8.0000    -1.91772432     1.57072282     3.77002034
   25 O                    8.0000     2.79596395     1.18451024     2.98966872
   26 O                    8.0000     1.60911672    -8.50971009     0.73419573
   27 O                    8.0000     4.58328647    -5.94873716    -0.12190548
   28 O                    8.0000    -4.61763819    -2.12899281     1.61746103
   29 O                    8.0000    -0.44852761    -2.50295203     3.59480199
   30 H                    1.0000    -2.03489822     1.13058544    -2.48992717
   31 H                    1.0000    -4.81389296    -4.50970665    -6.39895349
   32 O                    8.0000     2.37996570    -4.66490611    -1.00589684
   33 O                    8.0000     1.37781674     2.10175928    -2.88646064
   34 O                    8.0000    -3.43658782     5.33925149     4.53872973
   35 O                    8.0000    -4.77593024    -1.23210498    -2.57857017
   36 Si                  14.0000    -4.76812683    -3.49609072     0.70095758
   37 Si                  14.0000    -0.53084540    -4.16385346     3.30021945
   38 O                    8.0000     1.07023986     4.62070101     1.82537271
   39 O                    8.0000     5.19448864     3.13162295    -0.93190571
   40 H                    1.0000     4.94170087    -6.15452038    -1.00074395
   41 H                    1.0000    -3.85172729     7.26649796     0.17383598
   42 Si                  14.0000    -2.47106837     5.53865005     3.21605099
   43 O                    8.0000    -4.78553254    -3.79787373    -3.32978009
   44 O                    8.0000    -1.57328902    -6.27626573    -0.17621936
   45 O                    8.0000    -2.18174101    -4.34133375    -3.84806944
   46 Si                  14.0000     1.69160759     4.70272480     0.32440337
   47 O                    8.0000    -1.01678083    -4.44654686     1.77005462
   48 H                    1.0000    -1.44243432    -5.73807054    -3.22628812
   49 H                    1.0000     4.22599016    -5.49310648     4.69168219
   50 Si                  14.0000     5.47821913     2.58554317    -2.45558620
   51 O                    8.0000    -3.27882625    -4.19425892     0.46808335
   52 O                    8.0000     0.88089588    -6.85903702    -1.11788651
   53 O                    8.0000     1.36748005     6.16566095    -0.37845866
   54 O                    8.0000     2.92129875    -5.01109070     1.68521262
   55 O                    8.0000    -6.34203761     1.18301619     1.17440374
   56 O                    8.0000     4.25026051    -8.15884424     1.50770042
   57 O                    8.0000     4.71055856     3.57163420    -3.52239764
   58 H                    1.0000    -3.62186698     9.98622777     3.13920511
   59 O                    8.0000    -1.08910801     0.54954435     1.45291434
   60 H                    1.0000     4.59124775    -2.02234585    -4.17028069
   61 H                    1.0000    -1.86181694    -1.10202538    -2.84714963
   62 O                    8.0000    -3.95505050    -6.34283638    -3.93232894
   63 O                    8.0000     3.94736292    -0.98148245     1.75150112
   64 H                    1.0000    -5.80245346    -5.08169556     2.16981026
   65 O                    8.0000    -4.62033209     3.12217191     0.41884482
   66 O                    8.0000    -0.98434397    -8.76929123    -1.18353376
   67 H                    1.0000    -1.72334238    -4.86158681     5.26740795
   68 O                    8.0000     2.60831963    -9.86490294     2.85156714
   69 H                    1.0000     7.68693659     2.13068839    -3.29474234
   70 H                    1.0000     7.16446884    -2.04558394     0.59805094
   71 H                    1.0000    -7.85859935    -3.05304150    -2.58742717
   72 H                    1.0000     1.63463744     5.98096219     4.77617494
   73 H                    1.0000     6.47404506     5.49172985     0.62812591
   74 O                    8.0000    -3.12710809     4.88244783     1.84775737
   75 O                    8.0000     0.98415202     3.64175740    -0.70812864
   76 H                    1.0000    -1.02004526     1.99732784     3.85435567
   77 H                    1.0000     3.48253192     1.79532615     2.58247066
   78 O                    8.0000     3.43870997    -5.03015933     4.36836019
   79 O                    8.0000     0.97487899    -4.79361884     3.50009986
   80 O                    8.0000    -4.03078765    -4.37103071    -5.85024866
   81 O                    8.0000    -1.25856279     6.66098346    -1.05692317
   82 H                    1.0000    -5.64125225     5.78679954    -0.36625093
   83 O                    8.0000     4.86263318     1.07553850    -2.63163062
   84 O                    8.0000     0.55065129     2.69481582     3.66358796
   85 O                    8.0000     4.71444699     2.54821209     1.72503273
   86 O                    8.0000     2.25198772     4.51196525    -3.69498076
   87 H                    1.0000    -3.89721334    -1.77369986     2.21336599
   88 O                    8.0000    -2.62475762    -1.03745206     2.99080687
   89 O                    8.0000     2.06174068    -1.38417867     3.74079120
   90 H                    1.0000     1.72628305     2.91133669    -3.36843092
   91 O                    8.0000    -0.98508403     4.88629998     3.46063848
   92 O                    8.0000    -5.84699666    -4.58791412     1.34003649
   93 O                    8.0000    -1.67353811    -4.82330734     4.30347928
   94 O                    8.0000    -4.73910908     5.83880580    -0.01267786
   95 O                    8.0000     3.29720332     4.39051426     0.43049248
   96 H                    1.0000     0.41990425    -2.02327016     3.69434640
   97 O                    8.0000    -5.34854235    -3.10929143    -0.78501639
   98 O                    8.0000    -1.21962412     2.53858010    -1.94308555
   99 H                    1.0000     1.67195671    -1.87019461    -2.42676401
  100 H                    1.0000    -3.64034476     4.52581392     5.02414036
  101 O                    8.0000     7.11816283     2.61459768    -2.68186717
  102 H                    1.0000     1.44645320    -7.88096350    -0.03524471
  103 O                    8.0000    -4.56609747     0.85120022    -0.87655298
  104 O                    8.0000    -4.92300233     1.32609043    -3.51285323
  105 H                    1.0000    -6.66889070     0.34463645     1.53791004
  106 Si                  14.0000    -5.50982531    -2.69439051    -2.36072491
  107 O                    8.0000    -0.46199309    -1.35739254    -0.32747943
  108 O                    8.0000     0.54925411     1.02658771    -0.62791838
  109 O                    8.0000    -3.66939157     1.04767206     1.71066811
  110 Si                  14.0000    -1.74423895    -4.72642958     0.32470460
  111 H                    1.0000     1.68227995     5.27150501    -3.38278449
  112 H                    1.0000     2.60103460    -1.82460155     4.41913204
  113 H                    1.0000     1.34992414     2.10421182     3.57391763
  114 Si                  14.0000     2.39445781    -5.54144645     3.16866173
  115 O                    8.0000    -0.92904149    -3.87614228    -0.85914262
  116 O                    8.0000    -3.50090094     9.54003662     2.29114724
  117 O                    8.0000     2.55487510    -0.37820011    -2.78308256
  118 H                    1.0000     1.95018640    -3.85597435    -1.45991561
  119 O                    8.0000     4.28942027    -3.22146377     0.25734733
  120 H                    1.0000    -5.74706717     1.23533359    -4.01148974
  121 H                    1.0000     0.23176556     6.90640243    -3.67866836
  122 Si                  14.0000    -4.81398059     1.48101829     0.61798907
  123 H                    1.0000    -1.84041912     3.23999462    -1.54024367
  124 H                    1.0000     3.77693607     3.72042028    -6.51988771
  125 O                    8.0000    -0.91431751     8.96815425     1.44739756
  126 Si                  14.0000     0.06893919    -0.06320290     0.49651113
  127 O                    8.0000     1.35909565    -0.45077199     1.42133882
  128 O                    8.0000    -2.98529581     7.74853564     0.31827013
  129 O                    8.0000     0.49004936     8.66813680    -0.94986830
  130 Si                  14.0000     4.79208977    -1.67715694     0.51454315
  131 H                    1.0000     2.04863817     0.48376318    -2.89797563
  132 O                    8.0000    -7.10757440    -2.47039030    -2.77020955
  133 O                    8.0000    -2.54117033     4.41248431    -0.76397951
  134 O                    8.0000     0.74318006     6.61310192    -2.90359364
  135 O                    8.0000     6.38940462    -1.57733482     0.93608832
  136 O                    8.0000    -2.33815032     7.15128252     2.87448801
  137 O                    8.0000     4.30299133     6.25325238    -3.99425797
  138 O                    8.0000     3.89681838     4.48901855    -5.94681481
  139 Si                  14.0000     0.55384230     4.33635757     3.37332582
  140 Si                  14.0000    -2.34486661     0.55211121     2.53928182
  141 H                    1.0000    -0.40386534     9.07631585     0.61514442
  142 H                    1.0000     1.26539824     9.23423730    -1.09082406
  143 Si                  14.0000     4.79983827     3.75453159     0.53154862
  144 Si                  14.0000     2.59163638    -0.40130903     2.48396453
  145 H                    1.0000     4.84866017     6.82966858    -4.54736989
  146 O                    8.0000     2.29226754    -7.17958782     3.04895223
  147 O                    8.0000    -1.39492496    -2.00713479    -2.80132080
  148 H                    1.0000     5.52911225     2.15550729     2.08945627
  149 O                    8.0000     4.45954332    -0.86267314    -0.87499436
  150 H                    1.0000    -1.88279649    -1.61321695     3.35158931
  151 H                    1.0000     2.40366227    -9.99919773     3.78490167
  152 H                    1.0000    -0.51572265    -9.32889807    -0.54087879
  153 H                    1.0000    -3.25615569    -6.91453547    -3.54671573

      Atomic Mass 
      ----------- 

      O                 15.994910
      H                  1.007825
      Si                27.976930


 Effective nuclear repulsion energy (a.u.)   43986.8755606004

            Nuclear Dipole moment (a.u.) 
            ----------------------------
        X                 Y               Z
 ---------------- ---------------- ----------------
    -0.0000000000     0.0000000000    -0.0000000000



                                Z-matrix (autoz)
                                -------- 

 Units are Angstrom for bonds and degrees for angles

      Type          Name      I     J     K     L     M      Value
      ----------- --------  ----- ----- ----- ----- ----- ----------
    1 Stretch                  1    10                       1.66162
    2 Stretch                  1    60                       0.96664
    3 Stretch                  2   133                       1.01328
    4 Stretch                  3    56                       0.98498
    5 Stretch                  4   116                       1.65086
    6 Stretch                  4   125                       1.64579
    7 Stretch                  4   128                       1.70250
    8 Stretch                  4   136                       1.65650
    9 Stretch                  5    53                       1.64071
   10 Stretch                  5    81                       1.65472
   11 Stretch                  5   129                       1.68172
   12 Stretch                  5   134                       1.69692
   13 Stretch                  6    57                       1.64416
   14 Stretch                  6    86                       1.67654
   15 Stretch                  6   137                       1.66061
   16 Stretch                  6   138                       1.66087
   17 Stretch                  7    52                       1.00054
   18 Stretch                  8    65                       1.62264
   19 Stretch                  8    74                       1.63662
   20 Stretch                  8    94                       1.70194
   21 Stretch                  8   133                       1.68547
   22 Stretch                  9    33                       1.67793
   23 Stretch                  9    75                       1.64623
   24 Stretch                  9    98                       1.66695
   25 Stretch                  9   108                       1.63089
   26 Stretch                 10    83                       1.64313
   27 Stretch                 10   117                       1.67868
   28 Stretch                 10   149                       1.64143
   29 Stretch                 11    45                       0.99866
   30 Stretch                 12    19                       1.68247
   31 Stretch                 12    35                       1.63261
   32 Stretch                 12   103                       1.64750
   33 Stretch                 12   104                       1.66210
   34 Stretch                 13    23                       1.69275
   35 Stretch                 13   107                       1.64198
   36 Stretch                 13   115                       1.63159
   37 Stretch                 13   147                       1.66067
   38 Stretch                 14    27                       1.68882
   39 Stretch                 14    32                       1.66334
   40 Stretch                 14    54                       1.63142
   41 Stretch                 14   119                       1.64763
   42 Stretch                 15    81                       1.05092
   43 Stretch                 16    43                       1.65773
   44 Stretch                 16    45                       1.67901
   45 Stretch                 16    62                       1.65560
   46 Stretch                 16    80                       1.66335
   47 Stretch                 17    22                       1.65738
   48 Stretch                 17    44                       1.68316
   49 Stretch                 17    52                       1.68916
   50 Stretch                 17    66                       1.65157
   51 Stretch                 18    26                       1.65020
   52 Stretch                 18    56                       1.66684
   53 Stretch                 18    68                       1.65313
   54 Stretch                 18   146                       1.70699
   55 Stretch                 19    30                       1.00181
   56 Stretch                 20    72                       0.96581
   57 Stretch                 20   139                       1.65355
   58 Stretch                 21    73                       0.96613
   59 Stretch                 21   143                       1.65256
   60 Stretch                 22    48                       1.00394
   61 Stretch                 23    99                       1.00416
   62 Stretch                 24    76                       0.99746
   63 Stretch                 24   140                       1.65370
   64 Stretch                 25    77                       1.00513
   65 Stretch                 25   144                       1.67699
   66 Stretch                 26   102                       1.00689
   67 Stretch                 27    40                       0.97117
   68 Stretch                 28    36                       1.65275
   69 Stretch                 28    87                       1.00017
   70 Stretch                 29    37                       1.68883
   71 Stretch                 29    96                       0.99708
   72 Stretch                 31    80                       0.96621
   73 Stretch                 32   118                       1.02236
   74 Stretch                 33    90                       1.00456
   75 Stretch                 34    42                       1.64969
   76 Stretch                 34   100                       0.96893
   77 Stretch                 35   106                       1.65056
   78 Stretch                 36    51                       1.66123
   79 Stretch                 36    92                       1.66267
   80 Stretch                 36    97                       1.64153
   81 Stretch                 37    47                       1.63017
   82 Stretch                 37    79                       1.64431
   83 Stretch                 37    93                       1.65745
   84 Stretch                 38    46                       1.62657
   85 Stretch                 38   139                       1.65640
   86 Stretch                 39    50                       1.64326
   87 Stretch                 39   143                       1.63874
   88 Stretch                 41   128                       1.00196
   89 Stretch                 42    74                       1.65324
   90 Stretch                 42    91                       1.64120
   91 Stretch                 42   136                       1.65376
   92 Stretch                 43   106                       1.63748
   93 Stretch                 44   110                       1.63772
   94 Stretch                 46    53                       1.65507
   95 Stretch                 46    75                       1.64081
   96 Stretch                 46    95                       1.63911
   97 Stretch                 47   110                       1.64212
   98 Stretch                 49    78                       0.96885
   99 Stretch                 50    57                       1.64310
  100 Stretch                 50    83                       1.64014
  101 Stretch                 50   101                       1.65574
  102 Stretch                 51   110                       1.63056
  103 Stretch                 54   114                       1.66116
  104 Stretch                 55   105                       0.97049
  105 Stretch                 55   122                       1.65329
  106 Stretch                 58   116                       0.96588
  107 Stretch                 59   126                       1.62211
  108 Stretch                 59   140                       1.66046
  109 Stretch                 61   147                       1.01947
  110 Stretch                 62   153                       0.98183
  111 Stretch                 63   130                       1.65154
  112 Stretch                 63   144                       1.64654
  113 Stretch                 64    92                       0.96661
  114 Stretch                 65   122                       1.66449
  115 Stretch                 66   152                       0.97251
  116 Stretch                 67    93                       0.96597
  117 Stretch                 68   151                       0.96490
  118 Stretch                 69   101                       0.96607
  119 Stretch                 70   135                       0.96657
  120 Stretch                 71   132                       0.96795
  121 Stretch                 78   114                       1.67067
  122 Stretch                 79   114                       1.63838
  123 Stretch                 82    94                       0.97035
  124 Stretch                 84   113                       0.99784
  125 Stretch                 84   139                       1.66701
  126 Stretch                 85   143                       1.69909
  127 Stretch                 85   148                       0.97504
  128 Stretch                 86   111                       0.99947
  129 Stretch                 88   140                       1.67598
  130 Stretch                 88   150                       1.00607
  131 Stretch                 89   112                       0.97209
  132 Stretch                 89   144                       1.68120
  133 Stretch                 91   139                       1.63657
  134 Stretch                 95   143                       1.63481
  135 Stretch                 97   106                       1.63738
  136 Stretch                 98   123                       1.01963
  137 Stretch                103   122                       1.64066
  138 Stretch                104   120                       0.96745
  139 Stretch                106   132                       1.66453
  140 Stretch                107   126                       1.62351
  141 Stretch                108   126                       1.63789
  142 Stretch                109   122                       1.64068
  143 Stretch                109   140                       1.63907
  144 Stretch                110   115                       1.67004
  145 Stretch                114   146                       1.64569
  146 Stretch                117   131                       1.00621
  147 Stretch                119   130                       1.64430
  148 Stretch                121   134                       0.97381
  149 Stretch                124   138                       0.96619
  150 Stretch                125   141                       0.98230
  151 Stretch                126   127                       1.63402
  152 Stretch                127   144                       1.62812
  153 Stretch                129   142                       0.97031
  154 Stretch                130   135                       1.65502
  155 Stretch                130   149                       1.64462
  156 Stretch                137   145                       0.96744
  157 Bend                     1    10    83               110.54504
  158 Bend                     1    10   117               109.06451
  159 Bend                     1    10   149               108.00382
  160 Bend                     2   133     8               120.44541
  161 Bend                     3    56    18               126.29932
  162 Bend                     4   116    58               132.03490
  163 Bend                     4   125   141               133.51528
  164 Bend                     4   128    41               126.50196
  165 Bend                     4   136    42               149.95143
  166 Bend                     5    53    46               146.33105
  167 Bend                     5    81    15               128.47611
  168 Bend                     5   129   142               127.61319
  169 Bend                     5   134   121               123.05781
  170 Bend                     6    57    50               167.79637
  171 Bend                     6    86   111               123.74294
  172 Bend                     6   137   145               128.39652
  173 Bend                     6   138   124               132.94854
  174 Bend                     7    52    17               130.43837
  175 Bend                     8    65   122               154.36205
  176 Bend                     8    74    42               169.90242
  177 Bend                     8    94    82               125.13507
  178 Bend                     9    33    90               117.45340
  179 Bend                     9    75    46               169.13520
  180 Bend                     9    98   123               124.74544
  181 Bend                     9   108   126               154.86443
  182 Bend                    10     1    60               130.23534
  183 Bend                    10    83    50               166.69679
  184 Bend                    10   117   131               122.23852
  185 Bend                    10   149   130               165.77357
  186 Bend                    11    45    16               124.38533
  187 Bend                    12    19    30               121.11613
  188 Bend                    12    35   106               164.10538
  189 Bend                    12   122    55               113.84549
  190 Bend                    12   122    65               102.96373
  191 Bend                    12   122   109               113.24686
  192 Bend                    12   104   120               129.55659
  193 Bend                    13    23    99               120.49874
  194 Bend                    13   107   126               155.28646
  195 Bend                    13   115   110               151.35349
  196 Bend                    13   147    61               123.32658
  197 Bend                    14    27    40               124.53026
  198 Bend                    14    32   118               128.13786
  199 Bend                    14    54   114               172.76700
  200 Bend                    14   119   130               167.88907
  201 Bend                    16    43   106               167.96606
  202 Bend                    16    62   153               124.13832
  203 Bend                    16    80    31               130.19683
  204 Bend                    17    22    48               129.57523
  205 Bend                    17    44   110               138.99820
  206 Bend                    17    66   152               125.28103
  207 Bend                    18    26   102               131.72260
  208 Bend                    18    68   151               129.33453
  209 Bend                    18   146   114               140.94015
  210 Bend                    19    12    35               107.85475
  211 Bend                    19    12   103               108.45937
  212 Bend                    19    12   104               108.50772
  213 Bend                    20   139    38               110.27601
  214 Bend                    20   139    84               108.96685
  215 Bend                    20   139    91               112.88600
  216 Bend                    21   143    39               111.32686
  217 Bend                    21   143    85               104.96323
  218 Bend                    21   143    95               114.57915
  219 Bend                    22    17    44               107.91116
  220 Bend                    22    17    52               115.71511
  221 Bend                    22    17    66               109.82656
  222 Bend                    23    13   107               107.08376
  223 Bend                    23    13   115               108.77928
  224 Bend                    23    13   147               111.18602
  225 Bend                    24   140    59               107.00948
  226 Bend                    24   140    88               115.26648
  227 Bend                    24   140   109               113.49908
  228 Bend                    25   144    63               111.53234
  229 Bend                    25   144    89               111.45727
  230 Bend                    25   144   127               108.52884
  231 Bend                    26    18    56               113.52163
  232 Bend                    26    18    68               109.95672
  233 Bend                    26    18   146               110.32704
  234 Bend                    27    14    32               107.24442
  235 Bend                    27    14    54               104.64755
  236 Bend                    27    14   119               112.18569
  237 Bend                    28    36    51               110.10489
  238 Bend                    28    36    92               112.89926
  239 Bend                    28    36    97               109.83245
  240 Bend                    29    37    47               110.41421
  241 Bend                    29    37    79               108.10893
  242 Bend                    29    37    93               108.62140
  243 Bend                    32    14    54               114.22287
  244 Bend                    32    14   119               109.65884
  245 Bend                    33     9    75               108.42577
  246 Bend                    33     9    98               113.52995
  247 Bend                    33     9   108               105.56146
  248 Bend                    34    42    74               112.54189
  249 Bend                    34    42    91               111.24706
  250 Bend                    34    42   136               109.29924
  251 Bend                    35    12   103               110.69886
  252 Bend                    35    12   104               111.74811
  253 Bend                    35   106    43               108.79873
  254 Bend                    35   106    97               107.92097
  255 Bend                    35   106   132               105.96828
  256 Bend                    36    28    87               133.61523
  257 Bend                    36    51   110               173.32934
  258 Bend                    36    92    64               129.45783
  259 Bend                    36    97   106               164.94543
  260 Bend                    37    29    96               122.20811
  261 Bend                    37    47   110               171.03587
  262 Bend                    37    79   114               160.67357
  263 Bend                    37    93    67               130.94490
  264 Bend                    38    46    53               111.20096
  265 Bend                    38    46    75               112.54278
  266 Bend                    38    46    95               107.75033
  267 Bend                    38   139    84               109.41197
  268 Bend                    38   139    91               106.57865
  269 Bend                    39    50    57               108.77887
  270 Bend                    39    50    83               109.91753
  271 Bend                    39    50   101               106.97201
  272 Bend                    39   143    85               111.68613
  273 Bend                    39   143    95               108.30204
  274 Bend                    42    34   100               128.77200
  275 Bend                    42    91   139               167.69408
  276 Bend                    43    16    45               108.61115
  277 Bend                    43    16    62               111.82321
  278 Bend                    43    16    80               108.34959
  279 Bend                    43   106    97               110.80437
  280 Bend                    43   106   132               111.69573
  281 Bend                    44    17    52               105.95539
  282 Bend                    44    17    66               111.26074
  283 Bend                    44   110    47               112.59819
  284 Bend                    44   110    51               115.72122
  285 Bend                    44   110   115               102.35959
  286 Bend                    45    16    62               106.70054
  287 Bend                    45    16    80               109.26367
  288 Bend                    46    38   139               171.93693
  289 Bend                    46    95   143               168.08650
  290 Bend                    47    37    79               108.70223
  291 Bend                    47    37    93               107.07732
  292 Bend                    47   110    51               106.49324
  293 Bend                    47   110   115               108.71807
  294 Bend                    49    78   114               126.96424
  295 Bend                    50   143    21               112.22863
  296 Bend                    50   143    85               113.40489
  297 Bend                    50   143    95               105.81692
  298 Bend                    50   101    69               131.37971
  299 Bend                    51    36    92               111.07717
  300 Bend                    51    36    97               106.80531
  301 Bend                    51   110   115               110.82795
  302 Bend                    52    17    66               106.14564
  303 Bend                    53     5    81               113.57584
  304 Bend                    53     5   129               109.46255
  305 Bend                    53     5   134               104.50664
  306 Bend                    53    46    75               102.70144
  307 Bend                    53    46    95               112.81059
  308 Bend                    54    14   119               108.85188
  309 Bend                    54   114    78               110.20176
  310 Bend                    54   114    79               108.04255
  311 Bend                    54   114   146               105.81539
  312 Bend                    55   122    65               108.99675
  313 Bend                    55   122   103               112.14957
  314 Bend                    55   122   109               111.90326
  315 Bend                    56    18    68               110.18265
  316 Bend                    56    18   146               105.03291
  317 Bend                    57     6    86               105.18982
  318 Bend                    57     6   137               112.83258
  319 Bend                    57     6   138               110.58005
  320 Bend                    57    50    83               107.90756
  321 Bend                    57    50   101               111.31432
  322 Bend                    59   126   107               111.52456
  323 Bend                    59   126   108               111.27151
  324 Bend                    59   126   127               108.63685
  325 Bend                    59   140    88               107.52334
  326 Bend                    59   140   109               106.31121
  327 Bend                    62    16    80               112.01349
  328 Bend                    63   130   119               110.87946
  329 Bend                    63   130   135               106.10927
  330 Bend                    63   130   149               108.70969
  331 Bend                    63   144    89               112.71091
  332 Bend                    63   144   127               108.80084
  333 Bend                    65     8    74               112.80466
  334 Bend                    65     8    94               111.79667
  335 Bend                    65     8   133               110.47244
  336 Bend                    65   122   103               104.59191
  337 Bend                    65   122   109               105.00721
  338 Bend                    68    18   146               107.56399
  339 Bend                    70   135   130               130.96655
  340 Bend                    71   132   106               128.11948
  341 Bend                    72    20   139               132.89015
  342 Bend                    73    21   143               132.70759
  343 Bend                    74     8    94               104.54739
  344 Bend                    74     8   133               109.76946
  345 Bend                    74    42    91               108.95743
  346 Bend                    74    42   136               104.35932
  347 Bend                    75     9    98               112.60878
  348 Bend                    75     9   108               108.06126
  349 Bend                    75    46    95               109.87153
  350 Bend                    76    24   140               123.97415
  351 Bend                    77    25   144               122.39278
  352 Bend                    78   114    79               104.86951
  353 Bend                    78   114   146               113.30848
  354 Bend                    79    37    93               113.91345
  355 Bend                    79   114   146               114.53583
  356 Bend                    81     5   129               105.97241
  357 Bend                    81     5   134               108.71422
  358 Bend                    83    10   117               110.63596
  359 Bend                    83    10   149               107.37396
  360 Bend                    83    50   101               111.91511
  361 Bend                    84   139    91               108.65147
  362 Bend                    85   143    95               105.86832
  363 Bend                    86     6   137               108.42428
  364 Bend                    86     6   138               113.35191
  365 Bend                    88   140   109               106.73805
  366 Bend                    89   144   127               103.38844
  367 Bend                    91    42   136               110.21888
  368 Bend                    92    36    97               105.85761
  369 Bend                    94     8   133               107.15673
  370 Bend                    97   106   132               111.43154
  371 Bend                    98     9   108               108.28802
  372 Bend                   103    12   104               109.47779
  373 Bend                   103   122   109               113.57081
  374 Bend                   105    55   122               126.37380
  375 Bend                   107    13   115               106.10915
  376 Bend                   107    13   147               111.04584
  377 Bend                   107   126   108               106.13310
  378 Bend                   107   126   127               110.87867
  379 Bend                   108   126   127               108.35049
  380 Bend                   112    89   144               127.71159
  381 Bend                   113    84   139               124.44796
  382 Bend                   115    13   147               112.36930
  383 Bend                   116     4   125               114.98764
  384 Bend                   116     4   128               108.07190
  385 Bend                   116     4   136               110.65319
  386 Bend                   117    10   149               111.17931
  387 Bend                   119   130   135               113.05001
  388 Bend                   119   130   149               105.73297
  389 Bend                   122    12    19               107.09885
  390 Bend                   122    12    35               112.55240
  391 Bend                   122    12   104               108.89407
  392 Bend                   122   109   140               168.60719
  393 Bend                   125     4   128               104.93474
  394 Bend                   125     4   136               110.53105
  395 Bend                   126    59   140               157.85750
  396 Bend                   126   127   144               163.72290
  397 Bend                   128     4   136               107.19312
  398 Bend                   129     5   134               114.82862
  399 Bend                   130    63   144               154.52093
  400 Bend                   135   130   149               112.36365
  401 Bend                   137     6   138               106.57777
  402 Bend                   140    88   150               121.07986
  403 Bend                   143    50    57               106.31344
  404 Bend                   143    50    83               110.38870
  405 Bend                   143    50   101               108.85593
  406 Bend                   143    85   148               120.43052
  407 Torsion                  1    10    83    50        -141.76159
  408 Torsion                  1    10   117   131        -133.97530
  409 Torsion                  1    10   149   130         -20.91569
  410 Torsion                  2   133     8    65         171.72306
  411 Torsion                  2   133     8    74         -63.26011
  412 Torsion                  2   133     8    94          49.71333
  413 Torsion                  3    56    18    26          49.25481
  414 Torsion                  3    56    18    68         173.07489
  415 Torsion                  3    56    18   146         -71.35433
  416 Torsion                  4   136    42    34        -129.74370
  417 Torsion                  4   136    42    74          -9.15120
  418 Torsion                  4   136    42    91         107.69827
  419 Torsion                  5    53    46    38         -91.06855
  420 Torsion                  5    53    46    75          29.52504
  421 Torsion                  5    53    46    95         147.74090
  422 Torsion                  6    57    50    39          -7.87181
  423 Torsion                  6    57    50    83         111.33823
  424 Torsion                  6    57    50   101        -125.49266
  425 Torsion                  7    52    17    22          53.40295
  426 Torsion                  7    52    17    44         -66.11616
  427 Torsion                  7    52    17    66         175.49869
  428 Torsion                  8    65   122    55         149.40562
  429 Torsion                  8    65   122   103         -90.48483
  430 Torsion                  8    65   122   109          29.35595
  431 Torsion                  8    74    42    34         119.59572
  432 Torsion                  8    74    42    91        -116.52499
  433 Torsion                  8    74    42   136           1.19478
  434 Torsion                  9    75    46    38         -62.92164
  435 Torsion                  9    75    46    53         177.41290
  436 Torsion                  9    75    46    95          57.14564
  437 Torsion                  9   108   126    59         -20.15169
  438 Torsion                  9   108   126   107         101.34687
  439 Torsion                  9   108   126   127        -139.52107
  440 Torsion                 10    83    50    39          -9.22921
  441 Torsion                 10    83    50    57        -127.71336
  442 Torsion                 10    83    50   101         109.48430
  443 Torsion                 10   149   130    63        -150.04686
  444 Torsion                 10   149   130   119         -30.94657
  445 Torsion                 10   149   130   135          92.81645
  446 Torsion                 11    45    16    43         -38.12841
  447 Torsion                 11    45    16    62        -158.82988
  448 Torsion                 11    45    16    80          79.87844
  449 Torsion                 12    35   106    43        -160.77336
  450 Torsion                 12    35   106    97         -40.48123
  451 Torsion                 12    35   106   132          78.98907
  452 Torsion                 13   107   126    59         161.24842
  453 Torsion                 13   107   126   108          39.91220
  454 Torsion                 13   107   126   127         -77.54609
  455 Torsion                 13   115   110    44         176.88298
  456 Torsion                 13   115   110    47         -63.80282
  457 Torsion                 13   115   110    51          52.91612
  458 Torsion                 14    54   114    78          98.24088
  459 Torsion                 14    54   114    79        -147.71488
  460 Torsion                 14    54   114   146         -24.60878
  461 Torsion                 14   119   130    63          12.94073
  462 Torsion                 14   119   130   135         131.95633
  463 Torsion                 14   119   130   149        -104.71379
  464 Torsion                 15    81     5    53         107.14929
  465 Torsion                 15    81     5   129         -13.05184
  466 Torsion                 15    81     5   134        -136.97693
  467 Torsion                 16    43   106    35          33.63218
  468 Torsion                 16    43   106    97         -84.86087
  469 Torsion                 16    43   106   132         150.26022
  470 Torsion                 17    44   110    47        -110.27237
  471 Torsion                 17    44   110    51         126.91883
  472 Torsion                 17    44   110   115           6.28231
  473 Torsion                 18   146   114    54           7.86856
  474 Torsion                 18   146   114    78        -112.98529
  475 Torsion                 18   146   114    79         126.76094
  476 Torsion                 19    12    35   106         128.31750
  477 Torsion                 19    12   122    55        -164.26277
  478 Torsion                 19    12   122    65          77.90064
  479 Torsion                 19    12   122   109         -34.93440
  480 Torsion                 12    19   103   122        -175.60996
  481 Torsion                 19    12   104   120         141.70406
  482 Torsion                 20   139    38    46          92.97028
  483 Torsion                 20   139    84   113         -63.33221
  484 Torsion                 20   139    91    42         118.29171
  485 Torsion                 21   143    50    57         -93.24128
  486 Torsion                 21   143    50    83         149.97825
  487 Torsion                 21   143    50   101          26.76952
  488 Torsion                 50    39    21   143         171.12207
  489 Torsion                 21   143    85   148         -45.78168
  490 Torsion                 21   143    95    46        -161.90731
  491 Torsion                 22    17    44   110         -64.03689
  492 Torsion                 22    17    66   152         162.01816
  493 Torsion                 23    13   107   126          27.55217
  494 Torsion                 23    13   115   110         137.50618
  495 Torsion                 23    13   147    61        -113.71782
  496 Torsion                 24   140    59   126         126.84375
  497 Torsion                 24   140    88   150         -65.17246
  498 Torsion                 24   140   109   122         132.45464
  499 Torsion                 25   144    63   130        -125.17671
  500 Torsion                 25   144    89   112         -84.28263
  501 Torsion                 25   144   127   126          -9.02964
  502 Torsion                 26    18    68   151        -121.11419
  503 Torsion                 26    18   146   114         -76.00895
  504 Torsion                 27    14    32   118        -141.89608
  505 Torsion                 27    14    54   114         -12.85220
  506 Torsion                 27    14   119   130        -154.62475
  507 Torsion                 28    36    51   110          -6.50652
  508 Torsion                 28    36    92    64         -64.61014
  509 Torsion                 28    36    97   106          91.26410
  510 Torsion                 29    37    47   110         -89.29290
  511 Torsion                 29    37    79   114        -118.19877
  512 Torsion                 29    37    93    67         -61.47426
  513 Torsion                 30    19    12    35        -175.95721
  514 Torsion                 30    19    12   103         -56.02274
  515 Torsion                 30    19    12   104          62.82219
  516 Torsion                 31    80    16    43         -64.97099
  517 Torsion                 31    80    16    45         176.85837
  518 Torsion                 31    80    16    62          58.84692
  519 Torsion                 32    14    27    40          43.35580
  520 Torsion                 32    14    54   114         104.12121
  521 Torsion                 32    14   119   130          86.32016
  522 Torsion                 33     9    75    46        -101.39000
  523 Torsion                 33     9    98   123        -136.88729
  524 Torsion                 33     9   108   126        -155.52485
  525 Torsion                 34    42    91   139         177.47156
  526 Torsion                 35    12   122    55         -45.89723
  527 Torsion                 35    12   122    65        -163.73382
  528 Torsion                 35    12   122   109          83.43114
  529 Torsion                 12    35   103   122        -177.86678
  530 Torsion                 35    12   104   120          22.91138
  531 Torsion                 35   106    97    36         -59.31262
  532 Torsion                 35   106   132    71        -165.83443
  533 Torsion                 36    51   110    44         170.18178
  534 Torsion                 36    51   110    47          44.20461
  535 Torsion                 36    51   110   115         -73.87645
  536 Torsion                 36    97   106    43          59.71124
  537 Torsion                 36    97   106   132        -175.26049
  538 Torsion                 37    47   110    44        -106.36086
  539 Torsion                 37    47   110    51          21.48177
  540 Torsion                 37    47   110   115         140.94420
  541 Torsion                 37    79   114    54          42.31706
  542 Torsion                 37    79   114    78         159.84990
  543 Torsion                 37    79   114   146         -75.31421
  544 Torsion                 38    46    95   143          83.03619
  545 Torsion                 38   139    20    72          80.54119
  546 Torsion                 38   139    84   113          57.30725
  547 Torsion                 38   139    91    42          -2.91584
  548 Torsion                 39    50   101    69         157.57327
  549 Torsion                 39   143    21    73          41.41559
  550 Torsion                 39   143    85   148          74.97599
  551 Torsion                 39   143    95    46          73.16641
  552 Torsion                 40    27    14    54         165.03467
  553 Torsion                 40    27    14   119         -77.10836
  554 Torsion                 41   128     4   116         -60.72261
  555 Torsion                 41   128     4   125         176.12187
  556 Torsion                 41   128     4   136          58.57421
  557 Torsion                 42    74     8    65        -158.14774
  558 Torsion                 42    74     8    94         -36.46265
  559 Torsion                 42    74     8   133          78.18984
  560 Torsion                 42    91   139    84        -120.72207
  561 Torsion                 42   136     4   116         122.75321
  562 Torsion                 42   136     4   125        -108.69531
  563 Torsion                 42   136     4   128           5.13004
  564 Torsion                 43    16    62   153        -116.15363
  565 Torsion                 43   106   132    71          75.83364
  566 Torsion                 44    17    22    48          53.44504
  567 Torsion                 44    17    66   152         -78.57010
  568 Torsion                 45    16    43   106          14.83188
  569 Torsion                 45    16    62   153           2.47054
  570 Torsion                 46    38   139    84         -26.86850
  571 Torsion                 46    38   139    91        -144.17197
  572 Torsion                 46    53     5    81          36.47846
  573 Torsion                 46    53     5   129         154.68438
  574 Torsion                 46    53     5   134         -81.84880
  575 Torsion                 46    75     9    98         132.12799
  576 Torsion                 46    75     9   108          12.56796
  577 Torsion                 46    95   143    85         -46.74437
  578 Torsion                 47    37    29    96        -108.44190
  579 Torsion                 47    37    79   114           1.67859
  580 Torsion                 47    37    93    67         179.27944
  581 Torsion                 48    22    17    52         -64.99896
  582 Torsion                 48    22    17    66         174.88638
  583 Torsion                 49    78   114    54         -88.86956
  584 Torsion                 49    78   114    79         155.08028
  585 Torsion                 49    78   114   146          29.47318
  586 Torsion                 50    57     6    86         -51.83833
  587 Torsion                 50    57     6   137          66.17305
  588 Torsion                 50    57     6   138        -174.56753
  589 Torsion                 50    83    10   117          97.31624
  590 Torsion                 50    83    10   149         -24.17325
  591 Torsion                 51    36    28    87         -17.03205
  592 Torsion                 51    36    92    64          59.63259
  593 Torsion                 51    36    97   106         -28.11867
  594 Torsion                 52    17    44   110          60.48166
  595 Torsion                 52    17    66   152          36.24669
  596 Torsion                 53     5   129   142          64.98535
  597 Torsion                 53     5   134   121         173.45604
  598 Torsion                 53    46    38   139        -171.95465
  599 Torsion                 53    46    95   143        -153.83216
  600 Torsion                 54    14    32   118         102.63728
  601 Torsion                 54    14   119   130         -39.29612
  602 Torsion                 55   122    12   104          78.58788
  603 Torsion                 12   103    55   122        -176.33583
  604 Torsion                 55   122   109   140         148.67465
  605 Torsion                 56    18    26   102         -49.40326
  606 Torsion                 56    18    68   151         113.02319
  607 Torsion                 56    18   146   114          46.68627
  608 Torsion                 57     6    86   111         132.50930
  609 Torsion                 57     6   137   145         100.18364
  610 Torsion                 57     6   138   124          50.52795
  611 Torsion                 57    50   143    85         148.01926
  612 Torsion                 57    50   143    95          32.40652
  613 Torsion                 50    57    39   143        -177.69106
  614 Torsion                 57    50   101    69         -83.71741
  615 Torsion                 58   116     4   125         -77.38699
  616 Torsion                 58   116     4   128         165.79480
  617 Torsion                 58   116     4   136          48.71157
  618 Torsion                 59   126   127   144         -52.24995
  619 Torsion                 59   140    24    76          -6.37605
  620 Torsion                 59   140    88   150          54.05281
  621 Torsion                 59   140   109   122          15.09355
  622 Torsion                 60     1    10    83        -114.21340
  623 Torsion                 60     1    10   117           7.63868
  624 Torsion                 60     1    10   149         128.58589
  625 Torsion                 61   147    13   107           5.40753
  626 Torsion                 61   147    13   115         124.08293
  627 Torsion                 62    16    43   106         132.31483
  628 Torsion                 63   130   135    70         163.13033
  629 Torsion                 63   144    25    77          22.60299
  630 Torsion                 63   144    89   112          42.01713
  631 Torsion                 63   144   127   126        -130.56407
  632 Torsion                 64    92    36    97         175.20094
  633 Torsion                 65     8    94    82         -12.23063
  634 Torsion                 65   122    55   105        -167.30698
  635 Torsion                 65   122    12   104         -39.24871
  636 Torsion                 12   103    65   122        -176.79502
  637 Torsion                 65   122   109   140         -93.22513
  638 Torsion                 66    17    44   110         175.41650
  639 Torsion                 67    93    37    79          59.07018
  640 Torsion                 68    18    26   102        -173.34627
  641 Torsion                 68    18   146   114         164.05509
  642 Torsion                 69   101    50    83          37.12870
  643 Torsion                 70   135   130   119          41.39161
  644 Torsion                 70   135   130   149         -78.19323
  645 Torsion                 71   132   106    97         -48.69549
  646 Torsion                 72    20   139    84        -159.35141
  647 Torsion                 72    20   139    91         -38.54469
  648 Torsion                 73    21   143    85         162.41003
  649 Torsion                 73    21   143    95         -81.90202
  650 Torsion                 74     8    65   122         -62.99432
  651 Torsion                 74     8    94    82        -134.57694
  652 Torsion                 74    42    34   100          70.35299
  653 Torsion                 74    42    91   139          52.82830
  654 Torsion                 75     9    33    90         -39.27661
  655 Torsion                 75     9    98   123         -13.19237
  656 Torsion                 75     9   108   126          88.63125
  657 Torsion                 75    46    38   139          73.44084
  658 Torsion                 75    46    95   143         -39.90103
  659 Torsion                 76    24   140    88         113.13306
  660 Torsion                 76    24   140   109        -123.32979
  661 Torsion                 77    25   144    89         149.54735
  662 Torsion                 77    25   144   127         -97.24095
  663 Torsion                 79    37    29    96          10.35321
  664 Torsion                 79    37    47   110         152.27389
  665 Torsion                 80    16    43   106        -103.75322
  666 Torsion                 80    16    62   153         121.99736
  667 Torsion                 81     5   129   142        -172.16865
  668 Torsion                 81     5   134   121          51.86546
  669 Torsion                 82    94     8   133         108.94680
  670 Torsion                 83    10   117   131         -12.17825
  671 Torsion                 83    10   149   130        -140.14704
  672 Torsion                 83    50   143    85          31.23879
  673 Torsion                 83    50   143    95         -84.37394
  674 Torsion                 50    83    39   143         171.00015
  675 Torsion                 85   143    50   101         -91.96994
  676 Torsion                 50    39    85   143        -172.68793
  677 Torsion                 86     6   137   145        -143.71820
  678 Torsion                 86     6   138   124         -67.30918
  679 Torsion                 87    28    36    92         107.74200
  680 Torsion                 87    28    36    97        -134.37478
  681 Torsion                 88   140    59   126           2.46466
  682 Torsion                 88   140   109   122         -99.46402
  683 Torsion                 89   144    63   130         108.56380
  684 Torsion                 89   144   127   126         109.41815
  685 Torsion                 90    33     9    98          86.66962
  686 Torsion                 90    33     9   108        -154.87107
  687 Torsion                 91    42    34   100         -52.24756
  688 Torsion                 91   139    84   113         173.29909
  689 Torsion                 92    36    51   110        -132.31999
  690 Torsion                 92    36    97   106        -146.56412
  691 Torsion                 93    37    29    96         134.42508
  692 Torsion                 93    37    47   110          28.79091
  693 Torsion                 93    37    79   114         120.97012
  694 Torsion                 94     8    65   122         179.51511
  695 Torsion                 95    46    38   139         -47.84461
  696 Torsion                 95   143    50   101         152.41732
  697 Torsion                 50    39    95   143        -177.83674
  698 Torsion                 95   143    85   148        -167.35424
  699 Torsion                 97    36    51   110         112.69982
  700 Torsion                 98     9   108   126         -33.62076
  701 Torsion                 99    23    13   107         -63.86857
  702 Torsion                 99    23    13   115        -178.14235
  703 Torsion                 99    23    13   147          57.60086
  704 Torsion                100    34    42   136        -174.18872
  705 Torsion                 50   101    39   143        -173.57807
  706 Torsion                102    26    18   146          68.17153
  707 Torsion                103    12    35   106           9.80704
  708 Torsion                103    12   104   120        -100.09512
  709 Torsion                103   122    55   105          77.36425
  710 Torsion                103   122   109   140          20.44885
  711 Torsion                104    12    35   106        -112.50272
  712 Torsion                104    12   122   109        -152.08374
  713 Torsion                 12   104   103   122         173.80958
  714 Torsion                105    55   122   109         -51.61214
  715 Torsion                107    13   115   110          22.59767
  716 Torsion                107   126    59   140          43.61009
  717 Torsion                107   126   127   144        -175.14188
  718 Torsion                108     9    98   123         106.23605
  719 Torsion                108   126    59   140         161.90989
  720 Torsion                108   126   127   144          68.76369
  721 Torsion                 12   103   109   122         173.15449
  722 Torsion                109   140    59   126        -111.55658
  723 Torsion                109   140    88   150         167.78798
  724 Torsion                110   115    13   147         -98.94043
  725 Torsion                111    86     6   137          11.56157
  726 Torsion                111    86     6   138        -106.56284
  727 Torsion                112    89   144   127         159.32345
  728 Torsion                114    54    14   119        -132.96198
  729 Torsion                115    13   107   126         143.61185
  730 Torsion                116     4   125   141        -110.64834
  731 Torsion                117    10   149   130          98.70460
  732 Torsion                118    32    14   119         -19.84040
  733 Torsion                119   130    63   144         -64.51568
  734 Torsion                121   134     5   129         -66.61495
  735 Torsion                122    65     8   133          60.27851
  736 Torsion                124   138     6   137         173.50097
  737 Torsion                126   107    13   147         -94.00555
  738 Torsion                127   126    59   140         -78.89152
  739 Torsion                127   144    63   130          -5.49344
  740 Torsion                128     4   125   141           7.94029
  741 Torsion                131   117    10   149         107.03801
  742 Torsion                134     5   129   142         -52.15880
  743 Torsion                135   130    63   144         172.36756
  744 Torsion                136     4   125   141         123.19024
  745 Torsion                136    42    91   139         -61.12271
  746 Torsion                138     6   137   145         -21.36883
  747 Torsion                144    63   130   149          51.30716
  748 Torsion                146    18    68   151          -0.94348


            XYZ format geometry
            -------------------
   153
 geometry
 O                     4.93945503    -1.52258545    -3.41968918
 H                    -1.99516484     5.23348284    -0.99760984
 H                     4.54839642    -7.44046548     0.90335385
 Si                   -2.42043170     8.39818353     1.78707213
 Si                    0.33355017     7.03320282    -1.31134969
 Si                    3.80345620     4.69974526    -4.30201145
 H                     1.41448476    -6.01680322    -1.20161300
 Si                   -3.76634101     4.50160538     0.39006996
 Si                    0.39136512     2.35980910    -1.55388231
 Si                    4.19594145    -0.41285568    -2.43142587
 H                    -1.86121316    -3.41782748    -3.64381959
 Si                   -4.24355244     0.30034683    -2.39536288
 Si                   -0.43309037    -2.47431492    -1.53070885
 Si                    3.52040478    -4.67767143     0.20485879
 H                    -1.99260233     7.23003245    -0.56518953
 Si                   -3.76590510    -4.72855721    -4.24751815
 Si                   -0.76482351    -7.14316699    -1.37116246
 Si                    2.68204404    -8.45785137     1.98691774
 O                    -2.57586823     0.29716226    -2.61790948
 O                     1.56211829     5.07196578     4.45798302
 O                     5.95634057     4.80548161     1.06909564
 O                    -1.35986469    -6.66151542    -2.84114348
 O                     1.18034440    -2.64258074    -2.01436657
 O                    -1.91772432     1.57072282     3.77002034
 O                     2.79596395     1.18451024     2.98966872
 O                     1.60911672    -8.50971009     0.73419573
 O                     4.58328647    -5.94873716    -0.12190548
 O                    -4.61763819    -2.12899281     1.61746103
 O                    -0.44852761    -2.50295203     3.59480199
 H                    -2.03489822     1.13058544    -2.48992717
 H                    -4.81389296    -4.50970665    -6.39895349
 O                     2.37996570    -4.66490611    -1.00589684
 O                     1.37781674     2.10175928    -2.88646064
 O                    -3.43658782     5.33925149     4.53872973
 O                    -4.77593024    -1.23210498    -2.57857017
 Si                   -4.76812683    -3.49609072     0.70095758
 Si                   -0.53084540    -4.16385346     3.30021945
 O                     1.07023986     4.62070101     1.82537271
 O                     5.19448864     3.13162295    -0.93190571
 H                     4.94170087    -6.15452038    -1.00074395
 H                    -3.85172729     7.26649796     0.17383598
 Si                   -2.47106837     5.53865005     3.21605099
 O                    -4.78553254    -3.79787373    -3.32978009
 O                    -1.57328902    -6.27626573    -0.17621936
 O                    -2.18174101    -4.34133375    -3.84806944
 Si                    1.69160759     4.70272480     0.32440337
 O                    -1.01678083    -4.44654686     1.77005462
 H                    -1.44243432    -5.73807054    -3.22628812
 H                     4.22599016    -5.49310648     4.69168219
 Si                    5.47821913     2.58554317    -2.45558620
 O                    -3.27882625    -4.19425892     0.46808335
 O                     0.88089588    -6.85903702    -1.11788651
 O                     1.36748005     6.16566095    -0.37845866
 O                     2.92129875    -5.01109070     1.68521262
 O                    -6.34203761     1.18301619     1.17440374
 O                     4.25026051    -8.15884424     1.50770042
 O                     4.71055856     3.57163420    -3.52239764
 H                    -3.62186698     9.98622777     3.13920511
 O                    -1.08910801     0.54954435     1.45291434
 H                     4.59124775    -2.02234585    -4.17028069
 H                    -1.86181694    -1.10202538    -2.84714963
 O                    -3.95505050    -6.34283638    -3.93232894
 O                     3.94736292    -0.98148245     1.75150112
 H                    -5.80245346    -5.08169556     2.16981026
 O                    -4.62033209     3.12217191     0.41884482
 O                    -0.98434397    -8.76929123    -1.18353376
 H                    -1.72334238    -4.86158681     5.26740795
 O                     2.60831963    -9.86490294     2.85156714
 H                     7.68693659     2.13068839    -3.29474234
 H                     7.16446884    -2.04558394     0.59805094
 H                    -7.85859935    -3.05304150    -2.58742717
 H                     1.63463744     5.98096219     4.77617494
 H                     6.47404506     5.49172985     0.62812591
 O                    -3.12710809     4.88244783     1.84775737
 O                     0.98415202     3.64175740    -0.70812864
 H                    -1.02004526     1.99732784     3.85435567
 H                     3.48253192     1.79532615     2.58247066
 O                     3.43870997    -5.03015933     4.36836019
 O                     0.97487899    -4.79361884     3.50009986
 O                    -4.03078765    -4.37103071    -5.85024866
 O                    -1.25856279     6.66098346    -1.05692317
 H                    -5.64125225     5.78679954    -0.36625093
 O                     4.86263318     1.07553850    -2.63163062
 O                     0.55065129     2.69481582     3.66358796
 O                     4.71444699     2.54821209     1.72503273
 O                     2.25198772     4.51196525    -3.69498076
 H                    -3.89721334    -1.77369986     2.21336599
 O                    -2.62475762    -1.03745206     2.99080687
 O                     2.06174068    -1.38417867     3.74079120
 H                     1.72628305     2.91133669    -3.36843092
 O                    -0.98508403     4.88629998     3.46063848
 O                    -5.84699666    -4.58791412     1.34003649
 O                    -1.67353811    -4.82330734     4.30347928
 O                    -4.73910908     5.83880580    -0.01267786
 O                     3.29720332     4.39051426     0.43049248
 H                     0.41990425    -2.02327016     3.69434640
 O                    -5.34854235    -3.10929143    -0.78501639
 O                    -1.21962412     2.53858010    -1.94308555
 H                     1.67195671    -1.87019461    -2.42676401
 H                    -3.64034476     4.52581392     5.02414036
 O                     7.11816283     2.61459768    -2.68186717
 H                     1.44645320    -7.88096350    -0.03524471
 O                    -4.56609747     0.85120022    -0.87655298
 O                    -4.92300233     1.32609043    -3.51285323
 H                    -6.66889070     0.34463645     1.53791004
 Si                   -5.50982531    -2.69439051    -2.36072491
 O                    -0.46199309    -1.35739254    -0.32747943
 O                     0.54925411     1.02658771    -0.62791838
 O                    -3.66939157     1.04767206     1.71066811
 Si                   -1.74423895    -4.72642958     0.32470460
 H                     1.68227995     5.27150501    -3.38278449
 H                     2.60103460    -1.82460155     4.41913204
 H                     1.34992414     2.10421182     3.57391763
 Si                    2.39445781    -5.54144645     3.16866173
 O                    -0.92904149    -3.87614228    -0.85914262
 O                    -3.50090094     9.54003662     2.29114724
 O                     2.55487510    -0.37820011    -2.78308256
 H                     1.95018640    -3.85597435    -1.45991561
 O                     4.28942027    -3.22146377     0.25734733
 H                    -5.74706717     1.23533359    -4.01148974
 H                     0.23176556     6.90640243    -3.67866836
 Si                   -4.81398059     1.48101829     0.61798907
 H                    -1.84041912     3.23999462    -1.54024367
 H                     3.77693607     3.72042028    -6.51988771
 O                    -0.91431751     8.96815425     1.44739756
 Si                    0.06893919    -0.06320290     0.49651113
 O                     1.35909565    -0.45077199     1.42133882
 O                    -2.98529581     7.74853564     0.31827013
 O                     0.49004936     8.66813680    -0.94986830
 Si                    4.79208977    -1.67715694     0.51454315
 H                     2.04863817     0.48376318    -2.89797563
 O                    -7.10757440    -2.47039030    -2.77020955
 O                    -2.54117033     4.41248431    -0.76397951
 O                     0.74318006     6.61310192    -2.90359364
 O                     6.38940462    -1.57733482     0.93608832
 O                    -2.33815032     7.15128252     2.87448801
 O                     4.30299133     6.25325238    -3.99425797
 O                     3.89681838     4.48901855    -5.94681481
 Si                    0.55384230     4.33635757     3.37332582
 Si                   -2.34486661     0.55211121     2.53928182
 H                    -0.40386534     9.07631585     0.61514442
 H                     1.26539824     9.23423730    -1.09082406
 Si                    4.79983827     3.75453159     0.53154862
 Si                    2.59163638    -0.40130903     2.48396453
 H                     4.84866017     6.82966858    -4.54736989
 O                     2.29226754    -7.17958782     3.04895223
 O                    -1.39492496    -2.00713479    -2.80132080
 H                     5.52911225     2.15550729     2.08945627
 O                     4.45954332    -0.86267314    -0.87499436
 H                    -1.88279649    -1.61321695     3.35158931
 H                     2.40366227    -9.99919773     3.78490167
 H                    -0.51572265    -9.32889807    -0.54087879
 H                    -3.25615569    -6.91453547    -3.54671573

 ==============================================================================
                                internuclear distances
 ------------------------------------------------------------------------------
       center one      |      center two      | atomic units |  angstroms
 ------------------------------------------------------------------------------
   10 Si               |   1 O                |     3.14000  |     1.66162
   19 O                |  12 Si               |     3.17941  |     1.68247
   22 O                |  17 Si               |     3.13199  |     1.65738
   23 O                |  13 Si               |     3.19884  |     1.69275
   26 O                |  18 Si               |     3.11843  |     1.65020
   27 O                |  14 Si               |     3.19140  |     1.68882
   30 H                |  19 O                |     1.89315  |     1.00181
   32 O                |  14 Si               |     3.14325  |     1.66334
   33 O                |   9 Si               |     3.17082  |     1.67793
   35 O                |  12 Si               |     3.08518  |     1.63261
   36 Si               |  28 O                |     3.12324  |     1.65275
   37 Si               |  29 O                |     3.19143  |     1.68883
   40 H                |  27 O                |     1.83524  |     0.97117
[...]
  547 Torsion                 38   139    91    42          18.57462   21.49046
  548 Torsion                 39    50   101    69         174.30296   16.72969
  549 Torsion                 39   143    21    73          40.66232   -0.75327
  550 Torsion                 39   143    85   148          57.90775  -17.06825
  551 Torsion                 39   143    95    46         101.93680   28.77039
  552 Torsion                 40    27    14    54         164.24966   -0.78501
  553 Torsion                 40    27    14   119         -79.95226   -2.84389
  554 Torsion                 41   128     4   116         -62.67922   -1.95661
  555 Torsion                 41   128     4   125         174.56637   -1.55550
  556 Torsion                 41   128     4   136          56.46937   -2.10485
  557 Torsion                 42    74     8    65        -120.65666   37.49108
  558 Torsion                 42    74     8    94           0.99284   37.45549
  559 Torsion                 42    74     8   133         116.44658   38.25673
  560 Torsion                 42    91   139    84         -99.43568   21.28639
  561 Torsion                 42   136     4   116         134.50245   11.74924
  562 Torsion                 42   136     4   125         -97.87265   10.82266
  563 Torsion                 42   136     4   128          15.42162   10.29158
  564 Torsion                 43    16    62   153        -107.40223    8.75141
  565 Torsion                 43   106   132    71          57.82778  -18.00586
  566 Torsion                 44    17    22    48          48.74100   -4.70404
  567 Torsion                 44    17    66   152         -69.67642    8.89368
  568 Torsion                 45    16    43   106          43.57272   28.74084
  569 Torsion                 45    16    62   153          10.50409    8.03354
  570 Torsion                 46    38   139    84          16.67798   43.54648
  571 Torsion                 46    38   139    91        -100.06287   44.10910
  572 Torsion                 46    53     5    81          40.54690    4.06844
  573 Torsion                 46    53     5   129         158.87786    4.19348
  574 Torsion                 46    53     5   134         -77.87205    3.97676
  575 Torsion                 46    75     9    98         151.51001   19.38202
  576 Torsion                 46    75     9   108          31.17473   18.60677
  577 Torsion                 46    95   143    85         -17.73033   29.01404
  578 Torsion                 47    37    29    96        -110.45438   -2.01249
  579 Torsion                 47    37    79   114          33.01103   31.33245
  580 Torsion                 47    37    93    67        -179.81066    0.90990
  581 Torsion                 48    22    17    52         -69.93349   -4.93453
  582 Torsion                 48    22    17    66         168.98982   -5.89656
  583 Torsion                 49    78   114    54        -102.16617  -13.29662
  584 Torsion                 49    78   114    79         141.34000  -13.74028
  585 Torsion                 49    78   114   146          15.57961  -13.89357
  586 Torsion                 50    57     6    86         -26.69067   25.14766
  587 Torsion                 50    57     6   137          91.40217   25.22911
  588 Torsion                 50    57     6   138        -149.41013   25.15739
  589 Torsion                 50    83    10   117         104.50292    7.18668
  590 Torsion                 50    83    10   149         -16.97568    7.19757
  591 Torsion                 51    36    28    87         -11.72845    5.30360
  592 Torsion                 51    36    92    64          78.70065   19.06807
  593 Torsion                 51    36    97   106         -12.39832   15.72035
  594 Torsion                 52    17    44   110          63.43073    2.94906
  595 Torsion                 52    17    66   152          45.75541    9.50872
  596 Torsion                 53     5   129   142          60.76910   -4.21626
  597 Torsion                 53     5   134   121        -178.09990    8.44406
  598 Torsion                 53    46    38   139         147.68772  -40.35764
  599 Torsion                 53    46    95   143         179.76444  -26.40340
  600 Torsion                 54    14    32   118          93.58002   -9.05726
  601 Torsion                 54    14   119   130         -47.02725   -7.73112
  602 Torsion                 55   122    12   104          71.85255   -6.73533
  603 Torsion                 12   103    55   122        -163.18112   13.15471
  604 Torsion                 55   122   109   140         159.79755   11.12291
  605 Torsion                 56    18    26   102         -45.80554    3.59772
  606 Torsion                 56    18    68   151         -71.96937  175.00743
  607 Torsion                 56    18   146   114          75.01135   28.32509
  608 Torsion                 57     6    86   111         130.89030   -1.61900
  609 Torsion                 57     6   137   145          96.04143   -4.14221
  610 Torsion                 57     6   138   124          55.23826    4.71031
  611 Torsion                 57    50   143    85         146.61760   -1.40166
  612 Torsion                 57    50   143    95          31.62226   -0.78427
  613 Torsion                 50    57    39   143        -174.44054    3.25052
  614 Torsion                 57    50   101    69         -66.01558   17.70182
  615 Torsion                 58   116     4   125        -100.14131  -22.75433
  616 Torsion                 58   116     4   128         143.36074  -22.43406
  617 Torsion                 58   116     4   136          25.81217  -22.89940
  618 Torsion                 59   126   127   144         -70.26219  -18.01223
  619 Torsion                 59   140    24    76         -16.17537   -9.79932
  620 Torsion                 59   140    88   150          54.08727    0.03446
  621 Torsion                 59   140   109   122           4.10670  -10.98685
  622 Torsion                 60     1    10    83         -93.09304   21.12036
  623 Torsion                 60     1    10   117          29.15004   21.51136
  624 Torsion                 60     1    10   149         149.89361   21.30772
  625 Torsion                 61   147    13   107           4.45840   -0.94914
  626 Torsion                 61   147    13   115         123.82798   -0.25495
  627 Torsion                 62    16    43   106         160.38912   28.07429
  628 Torsion                 63   130   135    70         166.99331    3.86299
  629 Torsion                 63   144    25    77          18.62830   -3.97469
  630 Torsion                 63   144    89   112          10.47801  -31.53912
  631 Torsion                 63   144   127   126        -109.18552   21.37854
  632 Torsion                 64    92    36    97        -167.11249   17.68657
  633 Torsion                 65     8    94    82         -13.01492   -0.78429
  634 Torsion                 65   122    55   105        -170.68084   -3.37386
  635 Torsion                 65   122    12   104         -43.88403   -4.63532
  636 Torsion                 12   103    65   122         170.35661  -12.84837
  637 Torsion                 65   122   109   140         -81.97879   11.24634
  638 Torsion                 66    17    44   110        -179.98948    4.59402
  639 Torsion                 67    93    37    79          59.86908    0.79889
  640 Torsion                 68    18    26   102        -170.96978    2.37648
  641 Torsion                 68    18   146   114        -167.14091   28.80400
  642 Torsion                 69   101    50    83          54.35302   17.22432
  643 Torsion                 70   135   130   119          46.58524    5.19363
  644 Torsion                 70   135   130   149         -73.28059    4.91264
  645 Torsion                 71   132   106    97         -66.43035  -17.73486
  646 Torsion                 72    20   139    84        -165.78888   -6.43747
  647 Torsion                 72    20   139    91         -45.67820   -7.13351
  648 Torsion                 73    21   143    85         162.30213   -0.10791
  649 Torsion                 73    21   143    95         -81.32195    0.58007
  650 Torsion                 74     8    65   122         -50.26200   12.73231
  651 Torsion                 74     8    94    82        -135.91861   -1.34168
  652 Torsion                 74    42    34   100          73.31246    2.95947
  653 Torsion                 74    42    91   139          26.74956  -26.07874
  654 Torsion                 75     9    33    90         -36.77725    2.49937
  655 Torsion                 75     9    98   123         -12.55535    0.63702
  656 Torsion                 75     9   108   126         102.43214   13.80089
  657 Torsion                 75    46    38   139          34.54180  -38.89904
  658 Torsion                 75    46    95   143         -67.08584  -27.18481
  659 Torsion                 76    24   140    88         103.27497   -9.85809
  660 Torsion                 76    24   140   109        -133.67388  -10.34408
  661 Torsion                 77    25   144    89         146.03590   -3.51144
  662 Torsion                 77    25   144   127         -98.58803   -1.34708
  663 Torsion                 79    37    29    96           6.99060   -3.36261
  664 Torsion                 79    37    47   110         117.79307  -34.48082
  665 Torsion                 80    16    43   106         -78.54543   25.20779
  666 Torsion                 80    16    62   153         133.76149   11.76412
  667 Torsion                 81     5   129   142        -175.40636   -3.23771
  668 Torsion                 81     5   134   121          59.24719    7.38173
  669 Torsion                 82    94     8   133         107.90948   -1.03732
  670 Torsion                 83    10   117   131         -15.57670   -3.39844
  671 Torsion                 83    10   149   130        -149.30383   -9.15679
  672 Torsion                 83    50   143    85          30.60092   -0.63788
  673 Torsion                 83    50   143    95         -84.39443   -0.02049
  674 Torsion                 50    83    39   143         169.70620   -1.29395
  675 Torsion                 85   143    50   101         -92.48826   -0.51832
  676 Torsion                 50    39    85   143        -169.47615    3.21178
  677 Torsion                 86     6   137   145        -147.53615   -3.81795
  678 Torsion                 86     6   138   124         -62.73344    4.57575
  679 Torsion                 87    28    36    92         112.88641    5.14440
  680 Torsion                 87    28    36    97        -128.49199    5.88278
  681 Torsion                 88   140    59   126           0.79020   -1.67446
  682 Torsion                 88   140   109   122        -110.34024  -10.87622
  683 Torsion                 89   144    63   130         102.95837   -5.60543
  684 Torsion                 89   144   127   126         129.38553   19.96738
  685 Torsion                 90    33     9    98          87.84767    1.17806
  686 Torsion                 90    33     9   108        -152.05046    2.82061
  687 Torsion                 91    42    34   100         -49.44439    2.80316
  688 Torsion                 91   139    84   113         171.86027   -1.43882
  689 Torsion                 92    36    51   110        -120.15876   12.16123
  690 Torsion                 92    36    97   106        -130.67305   15.89106
  691 Torsion                 93    37    29    96         131.04223   -3.38285
  692 Torsion                 93    37    47   110          -6.13528  -34.92618
  693 Torsion                 93    37    79   114         152.87536   31.90524
  694 Torsion                 94     8    65   122        -168.53527   11.94963
  695 Torsion                 95    46    38   139         -87.98351  -40.13889
  696 Torsion                 95   143    50   101         152.51639    0.09907
  697 Torsion                 50    39    95   143         179.43637   -2.72689
  698 Torsion                 95   143    85   148         175.27024  -17.37552
  699 Torsion                 97    36    51   110         125.23115   12.53134
  700 Torsion                 98     9   108   126         -19.38070   14.24006
  701 Torsion                 99    23    13   107         -62.19664    1.67194
  702 Torsion                 99    23    13   115        -177.60165    0.54070
  703 Torsion                 99    23    13   147          58.59719    0.99633
  704 Torsion                100    34    42   136        -171.45385    2.73487
  705 Torsion                 50   101    39   143        -175.23863   -1.66055
  706 Torsion                102    26    18   146          72.62193    4.45041
  707 Torsion                103    12    35   106           9.94645    0.13941
  708 Torsion                103    12   104   120        -138.76657  -38.67145
  709 Torsion                103   122    55   105          72.62244   -4.74181
  710 Torsion                103   122   109   140          32.16365   11.71480
  711 Torsion                104    12    35   106        -111.14872    1.35400
  712 Torsion                104    12   122   109        -158.03907   -5.95533
  713 Torsion                 12   104   103   122         179.26241    5.45283
  714 Torsion                105    55   122   109         -54.29188   -2.67974
  715 Torsion                107    13   115   110          25.05070    2.45303
  716 Torsion                107   126    59   140          50.98613    7.37604
  717 Torsion                107   126   127   144         166.58246  -18.27566
  718 Torsion                108     9    98   123         106.35717    0.12112
  719 Torsion                108   126    59   140         168.20679    6.29691
  720 Torsion                108   126   127   144          50.86017  -17.90352
  721 Torsion                 12   103   109   122         170.08531   -3.06918
  722 Torsion                109   140    59   126        -113.04557   -1.48899
  723 Torsion                109   140    88   150         168.62588    0.83790
  724 Torsion                110   115    13   147         -96.58040    2.36003
  725 Torsion                111    86     6   137           9.65429   -1.90728
  726 Torsion                111    86     6   138        -108.32746   -1.76462
  727 Torsion                112    89   144   127         128.83293  -30.49052
  728 Torsion                114    54    14   119        -102.61950   30.34248
  729 Torsion                115    13   107   126         126.78923  -16.82263
  730 Torsion                116     4   125   141        -108.81183    1.83651
  731 Torsion                117    10   149   130          90.09199   -8.61261
  732 Torsion                118    32    14   119         -27.32191   -7.48151
  733 Torsion                119   130    63   144         -61.29527    3.22041
  734 Torsion                121   134     5   129         -58.71880    7.89615
  735 Torsion                122    65     8   133          71.91940   11.64089
  736 Torsion                124   138     6   137         178.28715    4.78618
  737 Torsion                126   107    13   147        -110.52321  -16.51765
  738 Torsion                127   126    59   140         -71.60752    7.28400
  739 Torsion                127   144    63   130         -13.48454   -7.99110
  740 Torsion                128     4   125   141          10.84868    2.90839
  741 Torsion                131   117    10   149         103.23047   -3.80754
  742 Torsion                134     5   129   142         -55.95178   -3.79298
  743 Torsion                135   130    63   144         175.65704    3.28947
  744 Torsion                136     4   125   141         126.05651    2.86627
  745 Torsion                136    42    91   139         -86.58899  -25.46628
  746 Torsion                138     6   137   145         -25.31021   -3.94139
  747 Torsion                144    63   130   149          55.68234    4.37518
  748 Torsion                146    18    68   151         172.81842  173.76190



                                NWChem Input Module
                                -------------------




                                     CITATION
                                     --------
                Please cite the following reference when publishing
                           results obtained with NWChem:

          E. Apra, E. J. Bylaska, W. A. de Jong, N. Govind, K. Kowalski,
       T. P. Straatsma, M. Valiev, H. J. J. van Dam, Y. Alexeev, J. Anchell,
       V. Anisimov, F. W. Aquino, R. Atta-Fynn, J. Autschbach, N. P. Bauman,
     J. C. Becca, D. E. Bernholdt, K. Bhaskaran-Nair, S. Bogatko, P. Borowski,
         J. Boschen, J. Brabec, A. Bruner, E. Cauet, Y. Chen, G. N. Chuev,
      C. J. Cramer, J. Daily, M. J. O. Deegan, T. H. Dunning Jr., M. Dupuis,
   K. G. Dyall, G. I. Fann, S. A. Fischer, A. Fonari, H. Fruchtl, L. Gagliardi,
      J. Garza, N. Gawande, S. Ghosh, K. Glaesemann, A. W. Gotz, J. Hammond,
       V. Helms, E. D. Hermes, K. Hirao, S. Hirata, M. Jacquelin, L. Jensen,
   B. G. Johnson, H. Jonsson, R. A. Kendall, M. Klemm, R. Kobayashi, V. Konkov,
      S. Krishnamoorthy, M. Krishnan, Z. Lin, R. D. Lins, R. J. Littlefield,
      A. J. Logsdail, K. Lopata, W. Ma, A. V. Marenich, J. Martin del Campo,
   D. Mejia-Rodriguez, J. E. Moore, J. M. Mullin, T. Nakajima, D. R. Nascimento,
    J. A. Nichols, P. J. Nichols, J. Nieplocha, A. Otero-de-la-Roza, B. Palmer,
    A. Panyala, T. Pirojsirikul, B. Peng, R. Peverati, J. Pittner, L. Pollack,
   R. M. Richard, P. Sadayappan, G. C. Schatz, W. A. Shelton, D. W. Silverstein,
   D. M. A. Smith, T. A. Soares, D. Song, M. Swart, H. L. Taylor, G. S. Thomas,
            V. Tipparaju, D. G. Truhlar, K. Tsemekhman, T. Van Voorhis,
      A. Vazquez-Mayagoitia, P. Verma, O. Villa, A. Vishnu, K. D. Vogiatzis,
        D. Wang, J. H. Weare, M. J. Williamson, T. L. Windus, K. Wolinski,
        A. T. Wong, Q. Wu, C. Yang, Q. Yu, M. Zacharias, Z. Zhang, Y. Zhao,
                                and R. J. Harrison
                        "NWChem: Past, present, and future
                         J. Chem. Phys. 152, 184102 (2020)
                               doi:10.1063/5.0004997

                                      AUTHORS
                                      -------
  E. Apra, E. J. Bylaska, N. Govind, K. Kowalski, M. Valiev, D. Mejia-Rodriguez,
       A. Kunitsa, N. P. Bauman, A. Panyala, W. A. de Jong, T. P. Straatsma,
   H. J. J. van Dam, D. Wang, T. L. Windus, J. Hammond, J. Autschbach, A. Woods,
    K. Bhaskaran-Nair, J. Brabec, K. Lopata, S. A. Fischer, S. Krishnamoorthy,
     M. Jacquelin, W. Ma, M. Klemm, O. Villa, Y. Chen, V. Anisimov, F. Aquino,
     S. Hirata, M. T. Hackler, E. Hermes, L. Jensen, J. E. Moore, J. C. Becca,
      V. Konjkov, T. Risthaus, M. Malagoli, A. Marenich, A. Otero-de-la-Roza,
        J. Mullin, P. Nichols, R. Peverati, J. Pittner, Y. Zhao, P.-D. Fan,
        A. Fonari, M. J. Williamson, R. J. Harrison, J. R. Rehr, M. Dupuis,
     D. Silverstein, D. M. A. Smith, J. Nieplocha, V. Tipparaju, M. Krishnan,
     B. E. Van Kuiken, A. Vazquez-Mayagoitia, M. Swart, Q. Wu, T. Van Voorhis,
     A. A. Auer, M. Nooijen, L. D. Crosby, E. Brown, G. Cisneros, G. I. Fann,
   H. Fruchtl, J. Garza, K. Hirao, R. A. Kendall, J. A. Nichols, K. Tsemekhman,
    K. Wolinski, J. Anchell, D. E. Bernholdt, P. Borowski, T. Clark, D. Clerc,
   H. Dachsel, M. J. O. Deegan, K. Dyall, D. Elwood, E. Glendening, M. Gutowski,
   A. C. Hess, J. Jaffe, B. G. Johnson, J. Ju, R. Kobayashi, R. Kutteh, Z. Lin,
   R. Littlefield, X. Long, B. Meng, T. Nakajima, S. Niu, L. Pollack, M. Rosing,
   K. Glaesemann, G. Sandrone, M. Stave, H. Taylor, G. Thomas, J. H. van Lenthe,
                               A. T. Wong, Z. Zhang.

 Total times  cpu:    17853.7s     wall:    20282.5s
