15
 energy: -20.902910579185 xtb: 6.7.1 (edcfbbe)
C           -0.65647104130870       -0.72792600068593       -1.07004861810292
O           -0.45349180767110       -1.51391290156854       -0.00003984303144
C            1.44507039360387        0.16625563496118       -0.67165503393084
C           -1.36841812233774        0.39665490984595       -0.69711746072628
C           -0.65594622369079       -0.72740946080287        1.06960322414952
C            1.44599176519678        0.16598418994336        0.67205978085657
C           -1.36748718283093        0.39727706279912        0.69649944681359
H           -0.57754832640873       -1.18069406571929       -2.04007418711863
H            1.90376913171366       -0.64520535562319       -1.21363222759958
H            1.30082417840356        1.07592684005990       -1.22857043490720
H           -1.77774441246461        1.12813432541135       -1.35604659863135
H           -0.57485267613836       -1.17887314946132        2.04001578144532
H            1.90309711184601       -0.64673353797610        1.21321671599572
H            1.30059710775057        1.07478212849076        1.22990220839824
H           -1.77778801961743        1.12841464478175        1.35516326614312
