

 Parallel Execution: Process Information
 ==============================================================================
 Rank   Node Name                              NodeID   MyNodeRank  NodeMaster
    0   adf1                                      0          0          0
    1   adf1                                      0          1         -1
    2   adf1                                      0          2         -1
    3   adf1                                      0          3         -1
    4   adf1                                      0          4         -1
    5   adf1                                      0          5         -1
    6   adf1                                      0          6         -1
    7   adf1                                      0          7         -1
    8   adf1                                      0          8         -1
    9   adf1                                      0          9         -1
   10   adf1                                      0         10         -1
   11   adf1                                      0         11         -1
 ==============================================================================


May use up to 22932MB of RAM as shared memory on node 0

 *******************************************************************************
 *                                                                             *
 *  --------------------------------                                           *
 *   Amsterdam Modeling Suite (AMS)              2020.202                      *
 *  --------------------------------                                           *
 *                                               r90167 2020-12-05             *
 *                                                                             *
 *                                                                             *
 *                              =================                              *
 *                              |               |                              *
 *                              |     A M S     |                              *
 *                              |               |                              *
 *                              =================                              *
 *                                                                             *
 *                                                                             *
 *   Online information and documentation:  https://www.scm.com/support/       *
 *   E-mail:  support@scm.com   info@scm.com                                   *
 *                                                                             *
 *   Scientific publications using AMS results must be properly referenced     *
 *   See the User Manuals (or the web site) for recommended citations          *
 *   The terms and conditions of the End User License Agreement apply to       *
 *   the use of AMS, https://www.scm.com/license-terms/                        *
 *                                                                             *
 **********************  x86_64_linux_intel / intelmpi  ************************
 
 Licensed to: Dr. Miroslav Ilias / Matej Bel University, Department Chemistry, Fac. Natural Sciences / Banska Bystrica / SLOVAKIA
 SCM User ID: u17848
  
 AMS 2020.202  RunTime: Mar23-2021 02:39:15  Nodes: 1  Procs: 12

 AMS jobname: ams
 AMS jobid  : 214664859

 Start   directory: /home/milias/Work/projects/open-collection/theoretical_chemistry/projects/nmr_diplomovky/HD/ams/b3lyp_tz2p_good/cosmo-acetone/tmp.milias.12774.0.noindex/
 Results directory: /home/milias/Work/projects/open-collection/theoretical_chemistry/projects/nmr_diplomovky/HD/ams/b3lyp_tz2p_good/cosmo-acetone/HD.geopt_freq_nmr_shield_b3lyp_tz2p_good_cosmo-acetone.results/
 Scratch directory: /tmp/amstmp_ams_kid0.214664859/


 Communication costs MPI_COMM_WORLD:      2.931 usec per message,   0.0271 usec per 8-byte item
 Communication costs for intra-node:      2.889 usec per message,   0.0272 usec per 8-byte item

 RNG seed: 1078702864 -752485042 -635716328 -739557193 -938155143 -2074278644 -471488473 1426253863



                       *********************************************************************
                       *  ADF 2020.202  RunTime: Mar23-2021 02:39:16  Nodes: 1  Procs: 12  *
                       *********************************************************************
  
       ***************************
       *  GEOMETRY OPTIMIZATION  *
       ***************************

Optimization Method                    Quasi Newton
Optimization Coordinates               Delocalized Coordinates
Optimize lattice                       F
 
 ------------------------------------------------------
 Convergence criteria (Hartree,Angstrom)
 ------------------------------------------------------
 Maximum gradient               0.001000000000
 Maximum rms gradient           0.000666666667
 Maximum step allowed           0.001000000000
 Maximum rms step allowed       0.000666666667
 Maximum energy change allowe   0.000150000000
 Maximum stress energy allowe   0.000500000000
 
Initial model Hessian                  Automatic Hessian
 
------------------------------------
Quasi-Newton Optimizer Parameters
------------------------------------
Hessian Update Method                  BFGS
Maximum number of steps                  250
First GDIIS cycle                          0
Maximum GDIIS vectors                      0
Trust radius (bohr)                        0.200000
Trust radius varies                        T
Constraints converged at all steps         T
Use projector                              T
 
 Rigid motions settings for: old optimizer
 Atomic rotations (x,y,z):     T T T
 Atomic translations (x,y,z):  T T T
 Tolerance:                   1.000000000000000E-006
 
--------
Geometry
--------
Atoms
  Index Symbol   x (angstrom)   y (angstrom)   z (angstrom)
      1      S     0.00000000     0.00000000    -0.97784519       adf.R=1.792
      2      C     1.39297639    -0.00000000     0.21605517       adf.R=1.700
      3      H     1.32221342     0.88787100     0.84225457       adf.R=1.350
      4      H     1.32221342    -0.88787100     0.84225457       adf.R=1.350
      5      C     2.69339134    -0.00000000    -0.56179273       adf.R=1.700
      6      H     2.80299458     0.88852300    -1.17549013       adf.R=1.350
      7      H     2.80299458    -0.88852300    -1.17549013       adf.R=1.350
      8      C    -1.39297639     0.00000000     0.21605517       adf.R=1.700
      9      H    -1.32221342    -0.88787100     0.84225457       adf.R=1.350
     10      H    -1.32221342     0.88787100     0.84225457       adf.R=1.350
     11      C    -2.69339134     0.00000000    -0.56179273       adf.R=1.700
     12      H    -2.80299458     0.88852300    -1.17549013       adf.R=1.350
     13      H    -2.80299458    -0.88852300    -1.17549013       adf.R=1.350
     14     Cl     4.10970777    -0.00000000     0.57918084       adf.R=1.725
     15     Cl    -4.10970777     0.00000000     0.57918084       adf.R=1.725
 
Total System Charge             0.00000
Bonding info available!
 
 
----------------
ADF Engine Input
----------------
 
 Basis
 Type TZ2P
 Core None
 End
 Save TAPE10
 XC
 Hybrid B3LYP
 End
 Relativity
 Level None
 End
 Solvation
 Surf Delley
 Solv name=Acetone cav0=0.0 cav1=0.0067639
 Charged method=CONJ
 C-Mat POT
 SCF VAR ALL
 CSMRSP
 End
 NumericalQuality Good
 

 Title: *** (NO TITLE) ***

Number of symmetry operators: 4
Schoenflies symbol:           C(2V)
 Using automatic Hessian for delocalized coordinates.
 *** GOStep1 ***

 SOLVATION
-------------------------------------------

  The Delley construction of COSMO surface surface is calculated

       Division Level for Surface Triangles (NDIV)                  3
       Final Division Level for Triangles (NFDIV)                   1
       Radius of the Solvent (RSOL)                           3.08000 angstr
  Dielectric Constant (EPSL)                                 20.70000

       COSMO equation is solved iteratively-               conjugate-gradient

       Maximun of Iterations for Charges (NCIX)                  1000
       Criterion for Charge convergence (CCNV)                1.0E-08

  COSMO charges included variationally in SCF

       COSMO included at every SCF cycle

  Geometry-dependent empirical factor                         0.00000

  C-Matrix calculated in cspmtx

  In cspmtx, C-Matrix calculated using fitted potential

-------------------------------------------



 -------------------------------------------
  COSMO surface
  Area             =          601.185
  Volume           =         1037.893
  Number of Points =         1375
 -------------------------------------------



 ======================
 RI Hartree-Fock Scheme
 ======================
  
 Fit Set Quality     : GOOD
 Integration Quality : GOOD
 Threshold Quality   : GOOD
 Response Quality    : DEFAULT
 Is Range Separated  :  F
 
 RIHartreeFock Dependency: number of modified vectors:          12
 cosmo_calcen: 0.5 (esolb+esolc) (Hartrees) =   -0.008907

 Solvation energy (screening term,uncorrected) =     -5.589356 kcal/mol

 Solvation energy (dispersion and cavitation terms) =      1.083686 kcal/mol
 Solvation Energy Contributions (Hartrees)
          esola   esolb+esolc
     0.00890720   -0.01781441
 esol last cycle   -0.00890720
  
 Hartree-Fock exchange energy:   -103.654587486833     
 cosmo_calcen: 0.5 (esolb+esolc) (Hartrees) =   -0.008907

 Solvation energy (screening term,uncorrected) =     -5.589356 kcal/mol

 Solvation energy (dispersion and cavitation terms) =      1.083686 kcal/mol
 Solvation Energy Contributions (Hartrees)
          esola   esolb+esolc
     0.00890720   -0.01781441
 esol last cycle   -0.00890720
  pauli hf:                              1.076064031915429         29.2812           675.24          2825.21
  elstat hf:                            -1.032575768918825        -28.0978          -647.95         -2711.03

 Energy gradients wrt nuclear displacements
 ==========================================

     Atom      Cartesian (a.u./angstrom)
                 X         Y         Z
 ----------------------------------------
     1 S     0.000000  0.000000 -0.000277
     2 C    -0.000880 -0.000000 -0.000342
     3 H     0.000319  0.000043  0.000139
     4 H     0.000319 -0.000043  0.000139
     5 C     0.001569  0.000000  0.001034
     6 H    -0.000271  0.000115 -0.000148
     7 H    -0.000271 -0.000115 -0.000148
     8 C     0.000880  0.000000 -0.000342
     9 H    -0.000319 -0.000043  0.000139
    10 H    -0.000319  0.000043  0.000139
    11 C    -0.001569 -0.000000  0.001034
    12 H     0.000271  0.000115 -0.000148
    13 H     0.000271 -0.000115 -0.000148
    14 Cl   -0.000692  0.000000 -0.000535
    15 Cl    0.000692 -0.000000 -0.000535
 ----------------------------------------
 Mulliken charges used for AMS results%charges...
 
----------------------------------------------------------------------
Geometry Convergence after Step   1       (Hartree/Angstrom,Angstrom)
----------------------------------------------------------------------
current energy                               -3.10195863 Hartree
energy change                      -3.10195863     0.00015000    F
constrained gradient max            0.00156892     0.00100000    F
constrained gradient rms            0.00050280     0.00066667    T
gradient max                        0.00156892
gradient rms                        0.00050280
cart. step max                      0.00204979     0.00100000    F
cart. step rms                      0.00094467     0.00066667    F
 
 
--------
Geometry
--------
Atoms
  Index Symbol   x (angstrom)   y (angstrom)   z (angstrom)
      1      S    -0.00000000    -0.00000000    -0.97891218       adf.R=1.792
      2      C     1.39244191    -0.00000000     0.21546947       adf.R=1.700
      3      H     1.32016363     0.88789554     0.84136906       adf.R=1.350
      4      H     1.32016363    -0.88789554     0.84136906       adf.R=1.350
      5      C     2.69311163    -0.00000000    -0.56175536       adf.R=1.700
      6      H     2.80427890     0.88851578    -1.17503329       adf.R=1.350
      7      H     2.80427890    -0.88851578    -1.17503329       adf.R=1.350
      8      C    -1.39244191     0.00000000     0.21546947       adf.R=1.700
      9      H    -1.32016363    -0.88789554     0.84136906       adf.R=1.350
     10      H    -1.32016363     0.88789554     0.84136906       adf.R=1.350
     11      C    -2.69311163     0.00000000    -0.56175536       adf.R=1.700
     12      H    -2.80427890     0.88851578    -1.17503329       adf.R=1.350
     13      H    -2.80427890    -0.88851578    -1.17503329       adf.R=1.350
     14     Cl     4.10854499    -0.00000000     0.58111999       adf.R=1.725
     15     Cl    -4.10854499     0.00000000     0.58111999       adf.R=1.725
 
Total System Charge             0.00000
Bonding info available!
 
 *** GOStep2 ***

 SOLVATION
-------------------------------------------

  The Delley construction of COSMO surface surface is calculated

       Division Level for Surface Triangles (NDIV)                  3
       Final Division Level for Triangles (NFDIV)                   1
       Radius of the Solvent (RSOL)                           3.08000 angstr
  Dielectric Constant (EPSL)                                 20.70000

       COSMO equation is solved iteratively-               conjugate-gradient

       Maximun of Iterations for Charges (NCIX)                  1000
       Criterion for Charge convergence (CCNV)                1.0E-08

  COSMO charges included variationally in SCF

       COSMO included at every SCF cycle

  Geometry-dependent empirical factor                         0.00000

  C-Matrix calculated in cspmtx

  In cspmtx, C-Matrix calculated using fitted potential

-------------------------------------------



 -------------------------------------------
  COSMO surface
  Area             =          601.163
  Volume           =         1037.817
  Number of Points =         1375
 -------------------------------------------



 ======================
 RI Hartree-Fock Scheme
 ======================
  
 Fit Set Quality     : GOOD
 Integration Quality : GOOD
 Threshold Quality   : GOOD
 Response Quality    : DEFAULT
 Is Range Separated  :  F
 
 RIHartreeFock Dependency: number of modified vectors:          12
 cosmo_calcen: 0.5 (esolb+esolc) (Hartrees) =   -0.008932

 Solvation energy (screening term,uncorrected) =     -5.605175 kcal/mol

 Solvation energy (dispersion and cavitation terms) =      1.083646 kcal/mol
 Solvation Energy Contributions (Hartrees)
          esola   esolb+esolc
     0.00893241   -0.01786483
 esol last cycle   -0.00893241
  
 Hartree-Fock exchange energy:   -103.654689058591     
 cosmo_calcen: 0.5 (esolb+esolc) (Hartrees) =   -0.008932

 Solvation energy (screening term,uncorrected) =     -5.605176 kcal/mol

 Solvation energy (dispersion and cavitation terms) =      1.083646 kcal/mol
 Solvation Energy Contributions (Hartrees)
          esola   esolb+esolc
     0.00893242   -0.01786483
 esol last cycle   -0.00893242
  pauli hf:                              1.074263637920915         29.2322           674.11          2820.48
  elstat hf:                            -1.032572162932574        -28.0977          -647.95         -2711.02

 Energy gradients wrt nuclear displacements
 ==========================================

     Atom      Cartesian (a.u./angstrom)
                 X         Y         Z
 ----------------------------------------
     1 S     0.000000  0.000000  0.000030
     2 C    -0.000546  0.000000 -0.000044
     3 H     0.000076  0.000020  0.000074
     4 H     0.000076 -0.000020  0.000074
     5 C     0.001103  0.000000  0.000529
     6 H    -0.000087  0.000049 -0.000091
     7 H    -0.000087 -0.000049 -0.000091
     8 C     0.000546  0.000000 -0.000044
     9 H    -0.000076 -0.000020  0.000074
    10 H    -0.000076  0.000020  0.000074
    11 C    -0.001103 -0.000000  0.000529
    12 H     0.000087  0.000049 -0.000091
    13 H     0.000087 -0.000049 -0.000091
    14 Cl   -0.000655  0.000000 -0.000467
    15 Cl    0.000655  0.000000 -0.000467
 ----------------------------------------
 Mulliken charges used for AMS results%charges...

 dE(predicted):    -0.22015E-05, dE(actual):    -0.43503E-05, Trust radius:    0.200000, all in a.u.
 
----------------------------------------------------------------------
Geometry Convergence after Step   2       (Hartree/Angstrom,Angstrom)
----------------------------------------------------------------------
current energy                               -3.10196298 Hartree
energy change                      -0.00000435     0.00015000    T
constrained gradient max            0.00110332     0.00100000    F
constrained gradient rms            0.00033360     0.00066667    T
gradient max                        0.00110332
gradient rms                        0.00033360
cart. step max                      0.00102940     0.00100000    F
cart. step rms                      0.00051118     0.00066667    T
 
 
--------
Geometry
--------
Atoms
  Index Symbol   x (angstrom)   y (angstrom)   z (angstrom)
      1      S     0.00000000     0.00000000    -0.97924432       adf.R=1.792
      2      C     1.39254266    -0.00000000     0.21512440       adf.R=1.700
      3      H     1.31933221     0.88793898     0.84073917       adf.R=1.350
      4      H     1.31933221    -0.88793898     0.84073917       adf.R=1.350
      5      C     2.69307501    -0.00000000    -0.56173994       adf.R=1.700
      6      H     2.80530830     0.88851934    -1.17463861       adf.R=1.350
      7      H     2.80530830    -0.88851934    -1.17463861       adf.R=1.350
      8      C    -1.39254266     0.00000000     0.21512440       adf.R=1.700
      9      H    -1.31933221    -0.88793898     0.84073917       adf.R=1.350
     10      H    -1.31933221     0.88793898     0.84073917       adf.R=1.350
     11      C    -2.69307501     0.00000000    -0.56173994       adf.R=1.700
     12      H    -2.80530830     0.88851934    -1.17463861       adf.R=1.350
     13      H    -2.80530830    -0.88851934    -1.17463861       adf.R=1.350
     14     Cl     4.10893130    -0.00000000     0.58208617       adf.R=1.725
     15     Cl    -4.10893130     0.00000000     0.58208617       adf.R=1.725
 
Total System Charge             0.00000
Bonding info available!
 
 *** GOStep3 ***

 SOLVATION
-------------------------------------------

  The Delley construction of COSMO surface surface is calculated

       Division Level for Surface Triangles (NDIV)                  3
       Final Division Level for Triangles (NFDIV)                   1
       Radius of the Solvent (RSOL)                           3.08000 angstr
  Dielectric Constant (EPSL)                                 20.70000

       COSMO equation is solved iteratively-               conjugate-gradient

       Maximun of Iterations for Charges (NCIX)                  1000
       Criterion for Charge convergence (CCNV)                1.0E-08

  COSMO charges included variationally in SCF

       COSMO included at every SCF cycle

  Geometry-dependent empirical factor                         0.00000

  C-Matrix calculated in cspmtx

  In cspmtx, C-Matrix calculated using fitted potential

-------------------------------------------



 -------------------------------------------
  COSMO surface
  Area             =          601.210
  Volume           =         1037.856
  Number of Points =         1375
 -------------------------------------------



 ======================
 RI Hartree-Fock Scheme
 ======================
  
 Fit Set Quality     : GOOD
 Integration Quality : GOOD
 Threshold Quality   : GOOD
 Response Quality    : DEFAULT
 Is Range Separated  :  F
 
 RIHartreeFock Dependency: number of modified vectors:          12
 cosmo_calcen: 0.5 (esolb+esolc) (Hartrees) =   -0.008957

 Solvation energy (screening term,uncorrected) =     -5.620372 kcal/mol

 Solvation energy (dispersion and cavitation terms) =      1.083731 kcal/mol
 Solvation Energy Contributions (Hartrees)
          esola   esolb+esolc
     0.00895663   -0.01791326
 esol last cycle   -0.00895663
  
 Hartree-Fock exchange energy:   -103.654527389142     
 cosmo_calcen: 0.5 (esolb+esolc) (Hartrees) =   -0.008957

 Solvation energy (screening term,uncorrected) =     -5.620373 kcal/mol

 Solvation energy (dispersion and cavitation terms) =      1.083731 kcal/mol
 Solvation Energy Contributions (Hartrees)
          esola   esolb+esolc
     0.00895663   -0.01791327
 esol last cycle   -0.00895663
  pauli hf:                              1.072474364975921         29.1835           672.99          2815.78
  elstat hf:                            -1.032411001217692        -28.0933          -647.85         -2710.59

 Energy gradients wrt nuclear displacements
 ==========================================

     Atom      Cartesian (a.u./angstrom)
                 X         Y         Z
 ----------------------------------------
     1 S     0.000000  0.000000  0.000372
     2 C    -0.000120  0.000000 -0.000037
     3 H    -0.000074 -0.000004 -0.000018
     4 H    -0.000074  0.000004 -0.000018
     5 C     0.000407 -0.000000  0.000214
     6 H     0.000042 -0.000028 -0.000035
     7 H     0.000042  0.000028 -0.000035
     8 C     0.000120 -0.000000 -0.000037
     9 H     0.000074  0.000004 -0.000018
    10 H     0.000074 -0.000004 -0.000018
    11 C    -0.000407  0.000000  0.000214
    12 H    -0.000042 -0.000028 -0.000035
    13 H    -0.000042  0.000028 -0.000035
    14 Cl   -0.000306 -0.000000 -0.000257
    15 Cl    0.000306  0.000000 -0.000257
 ----------------------------------------
 Mulliken charges used for AMS results%charges...
 
---------------------------------------------------------
Geometry Convergence after Step   3       ** CONVERGED **
---------------------------------------------------------
current energy                               -3.10196393 Hartree
energy change                      -0.00000095     0.00015000    T
constrained gradient max            0.00040654     0.00100000    T
constrained gradient rms            0.00014540     0.00066667    T
gradient max                        0.00040654
gradient rms                        0.00014540
cart. step max                      0.00041222     0.00100000    T
cart. step rms                      0.00015794     0.00066667    T
 
Geometry optimization converged

Optimized geometry:
 
--------
Geometry
--------
Atoms
  Index Symbol   x (angstrom)   y (angstrom)   z (angstrom)
      1      S     0.00000000     0.00000000    -0.97924432       adf.R=1.792
      2      C     1.39254266    -0.00000000     0.21512440       adf.R=1.700
      3      H     1.31933221     0.88793898     0.84073917       adf.R=1.350
      4      H     1.31933221    -0.88793898     0.84073917       adf.R=1.350
      5      C     2.69307501    -0.00000000    -0.56173994       adf.R=1.700
      6      H     2.80530830     0.88851934    -1.17463861       adf.R=1.350
      7      H     2.80530830    -0.88851934    -1.17463861       adf.R=1.350
      8      C    -1.39254266     0.00000000     0.21512440       adf.R=1.700
      9      H    -1.31933221    -0.88793898     0.84073917       adf.R=1.350
     10      H    -1.31933221     0.88793898     0.84073917       adf.R=1.350
     11      C    -2.69307501     0.00000000    -0.56173994       adf.R=1.700
     12      H    -2.80530830     0.88851934    -1.17463861       adf.R=1.350
     13      H    -2.80530830    -0.88851934    -1.17463861       adf.R=1.350
     14     Cl     4.10893130    -0.00000000     0.58208617       adf.R=1.725
     15     Cl    -4.10893130     0.00000000     0.58208617       adf.R=1.725
 
Total System Charge             0.00000
Bonding info available!
 
Performing a single point calculation on the final geometry ...

 *** adf ***



 ===========================
 A T T A C H E D   F I L E S
 ===========================
  
 Restart/tmp/amstmp_ams_kid0.214664859/GOStep3.rkf*** GOStep3 ***



 ===============================
 M O D E L   P A R A M E T E R S
 ===============================
  
 DENSITY FUNCTIONAL POTENTIAL (scf)
    Hybrid:                            B3LYP                                   == Not Default ==

 SPIN  (restricted / unrestr.)
    Molecule:                          Restricted                               
    Fragments:                         Restricted                               

 OTHER ASPECTS
    Relativistic Corrections:          ---                                     == Not Default ==

    Nuclear Charge Density Model:      Point Charge Nuclei                      
    Core Treatment:                    Frozen Orbital(s)                        

    Hyperfine or Zeeman Interaction:   ---                                      

 SOLVATION
-------------------------------------------

  The Delley construction of COSMO surface surface is calculated

       Division Level for Surface Triangles (NDIV)                  3
       Final Division Level for Triangles (NFDIV)                   1
       Radius of the Solvent (RSOL)                           3.08000 angstr
  Dielectric Constant (EPSL)                                 20.70000

       COSMO equation is solved iteratively-               conjugate-gradient

       Maximun of Iterations for Charges (NCIX)                  1000
       Criterion for Charge convergence (CCNV)                1.0E-08

  COSMO charges included variationally in SCF

       COSMO included at every SCF cycle

  Geometry-dependent empirical factor                         0.00000

  C-Matrix calculated in cspmtx

  In cspmtx, C-Matrix calculated using fitted potential

-------------------------------------------




 ===============
 G E O M E T R Y  ***  3D  Molecule  ***
 ===============
  

 ATOMS
 =====                            X Y Z                    CHARGE                     RADIUS
                                (Angstrom)             Nucl     +Core       At.Mass (Angstrom)
                       --------------------------    ----------------       ------- ----------
    1  S               0.0000    0.0000   -0.9792     16.00     16.00       31.9721    1.7920
    2  C               1.3925   -0.0000    0.2151      6.00      6.00       12.0000    1.7000
    3  H               1.3193    0.8879    0.8407      1.00      1.00        1.0078    1.3500
    4  H               1.3193   -0.8879    0.8407      1.00      1.00        1.0078    1.3500
    5  C               2.6931   -0.0000   -0.5617      6.00      6.00       12.0000    1.7000
    6  H               2.8053    0.8885   -1.1746      1.00      1.00        1.0078    1.3500
    7  H               2.8053   -0.8885   -1.1746      1.00      1.00        1.0078    1.3500
    8  C              -1.3925    0.0000    0.2151      6.00      6.00       12.0000    1.7000
    9  H              -1.3193   -0.8879    0.8407      1.00      1.00        1.0078    1.3500
   10  H              -1.3193    0.8879    0.8407      1.00      1.00        1.0078    1.3500
   11  C              -2.6931    0.0000   -0.5617      6.00      6.00       12.0000    1.7000
   12  H              -2.8053    0.8885   -1.1746      1.00      1.00        1.0078    1.3500
   13  H              -2.8053   -0.8885   -1.1746      1.00      1.00        1.0078    1.3500
   14  Cl              4.1089   -0.0000    0.5821     17.00     17.00       34.9689    1.7250
   15  Cl             -4.1089    0.0000    0.5821     17.00     17.00       34.9689    1.7250


 FRAGMENTS
 =========                                     Atoms in this Fragment     Cart. coord.s (Angstrom)
                                               -------------------------------------------------------
    1  S                                                 1  S            0.0000    0.0000   -0.9792
    2  C                                                 2  C            1.3925   -0.0000    0.2151
    3  C                                                 5  C            2.6931   -0.0000   -0.5617
    4  C                                                 8  C           -1.3925    0.0000    0.2151
    5  C                                                11  C           -2.6931    0.0000   -0.5617
    6  H                                                 3  H            1.3193    0.8879    0.8407
    7  H                                                 4  H            1.3193   -0.8879    0.8407
    8  H                                                 6  H            2.8053    0.8885   -1.1746
    9  H                                                 7  H            2.8053   -0.8885   -1.1746
   10  H                                                 9  H           -1.3193   -0.8879    0.8407
   11  H                                                10  H           -1.3193    0.8879    0.8407
   12  H                                                12  H           -2.8053    0.8885   -1.1746
   13  H                                                13  H           -2.8053   -0.8885   -1.1746
   14  Cl                                               14  Cl           4.1089   -0.0000    0.5821
   15  Cl                                               15  Cl          -4.1089    0.0000    0.5821


 Interatomic Distance Matrix (Angstrom)
 --------------------------------------

   1)     0.000
   2)     1.835   0.000
   3)     2.417   1.089   0.000
   4)     2.417   1.089   1.776   0.000
   5)     2.725   1.515   2.155   2.155   0.000
   6)     2.949   2.172   2.504   3.070   1.085   0.000
   7)     2.949   2.172   3.070   2.504   1.085   1.777   0.000
   8)     1.835   2.785   2.921   2.921   4.159   4.510   4.510   0.000
   9)     2.417   2.921   3.181   2.639   4.342   4.922   4.591   1.089   0.000
  10)     2.417   2.921   2.639   3.181   4.342   4.591   4.922   1.089   1.776   0.000
  11)     2.725   4.159   4.342   4.342   5.386   5.603   5.603   1.515   2.155   2.155
          0.000
  12)     2.949   4.510   4.591   4.922   5.603   5.611   5.885   2.172   3.070   2.504
          1.085   0.000
  13)     2.949   4.510   4.922   4.591   5.603   5.885   5.611   2.172   2.504   3.070
          1.085   1.777   0.000
  14)     4.396   2.741   2.939   2.939   1.820   2.361   2.361   5.514   5.506   5.506
          6.898   7.189   7.189   0.000
  15)     4.396   5.514   5.506   5.506   6.898   7.189   7.189   2.741   2.939   2.939
          1.820   2.361   2.361   8.218   0.000

 Min. Distance =    1.0852
 Max. Distance =    8.2179



 =====================================
 S Y M M E T R Y ,   E L E C T R O N S
 =====================================
  
 Symmetry: C(2V)

 Irreducible Representations, including subspecies
 -------------------------------------------------
 A1
 A2
 B1
 B2

 Symmetry is NOT used when fitting density


 Configuration of Valence Electrons
 ==================================
 ( determined in the SCF procedure )

 Total:   82

 Net Charge: 0 (Nuclei minus Electrons)

 Aufbau principle for MO occupations will be applied through SCF cycle no.     150
 Thereafter, the program will assign electrons to MOs that are spatially
 similar to the occupied MOs in a "reference" cycle ("KeepOrbitals").
 The reference cycle is always the PREVIOUS cycle: it will evolve with
 the SCF procedure.
1
 ***************************************************************************************************



                                      ****************************************
                                      *  B U I L D : (Fragments, Functions)  *
                                      ****************************************
  



 =======
 S F O s  ***  (Symmetrized Fragment Orbitals)  ***
 =======
  
 SFOs are linear combinations of (valence) Fragment Orbitals (FOs), such that the SFOs transform as the
 irreducible representations of the (molecular) symmetry group. Each SFO is therefore characterized by
 an irrep of the molecule and by a few (or only one) generating FOs.
 The SFOs constitute a symmetry-adapted basis for the Fock matrix. The MO eigenvector coefficients in
 this basis provide a direct interpretation of the MOs in terms of Frontier Orbital Theory.

 The SFOs are combined with auxiliary Core Functions (CFs) to ensure orthogonalization on the (frozen)
 Core Orbitals (COs). The Core-orthogonalized SFOs (CSFOs) constitute the true Fock basis.

 The FOs, and hence also the (C)SFOs are combinations of the elementary basis functions (BAS). The basis
 functions that participate in the description of the SFOs depend on the irrep. The indices of the
 involved functions are printed below for each irrep.
 (The complete list of primitive basis functions is printed in another section)

 Total nr. of (C)SFOs (summation over all irreps) :   294

 NOTE: a (C)SFO that is defined as a combination of more than one FO is usually NOT normalized.



                                       === A1 ===
 Nr. of SFOs :   98
 Cartesian basis functions that participate in this irrep (total number =   252) :
      1     2     3     4    11    12    13     7    10    16
     19    22    28    23    26    38    31    36    39    99
     40   100    41   101    42   102    43   103    46   106
     49   109    52   112    44   104    47   107    50   110
     58   118    55   115    53    56   113   116    68   128
     64   124    61    66   121   126    59    62   119   122
     69   129    70   130    71   131    72   132    73   133
     76   136    79   139    82   142    74   134    77   137
     80   140    88   148    85   145    83    86   143   146
     98   158    94   154    91    96   151   156    89    92
    149   152   159   171   207   219   160   172   208   220
    161   173   209   221   164   176   212   224   162   163
    174   175   210   211   222   223   170   182   218   230
    167   169   179   181   215   217   227   229   165   166
    168   177   178   180   213   214   216   225   226   228
    183   195   231   243   184   196   232   244   185   197
    233   245   188   200   236   248   186   187   198   199
    234   235   246   247   194   206   242   254   191   193
    203   205   239   241   251   253   189   190   192   201
    202   204   237   238   240   249   250   252   255   293
    256   294   257   295   258   296   265   303   266   304
    267   305   261   299   264   302   270   308   273   311
    276   314   259   297   262   300   268   306   271   309
    274   312   282   320   279   317   277   280   315   318
    292   330   288   326   285   290   323   328   283   286
    321   324

    SFO  (index         Fragment          Generating    Expansion in Fragment Orbitals
  indx  incl.CFs)   Occup   Orb.Energy   FragmentType  Coeff.   Orbital     on Fragment
 --------------------------------------------------------------------------------------
     1       1      2.000     -88.923 au  S             1.00      1 S               1
                        (   -2419.725 eV)
     2       2      2.000      -7.997 au  S             1.00      2 S               1
                        (    -217.618 eV)
     3       3      2.000      -0.691 au  S             1.00      3 S               1
                        (     -18.798 eV)
     4       4       --         0.219 au  S             1.00      4 S               1
                        (       5.958 eV)
     5       5       --         2.101 au  S             1.00      5 S               1
                        (      57.181 eV)
     6       6       --        12.826 au  S             1.00      6 S               1
                        (     349.000 eV)
     7       7       --       200.465 au  S             1.00      7 S               1
                        (    5454.923 eV)
     8       8      2.000      -5.953 au  S             1.00      1 P:z             1
                        (    -162.002 eV)
     9       9      1.333      -0.272 au  S             1.00      2 P:z             1
                        (      -7.400 eV)
    10      10       --         0.147 au  S             1.00      3 P:z             1
                        (       3.990 eV)
    11      11       --         1.258 au  S             1.00      4 P:z             1
                        (      34.238 eV)
    12      12       --        13.236 au  S             1.00      5 P:z             1
                        (     360.181 eV)
    13      13       --         0.479 au  S             1.00      1 D:z2            1
                        (      13.042 eV)
    14      14       --         0.479 au  S             1.00      1 D:x2-y2         1
                        (      13.042 eV)
    15      15       --         1.328 au  S             1.00      1 F:z3            1
                        (      36.128 eV)
    16      16       --         1.328 au  S             1.00      1 F:z             1
                        (      36.128 eV)
    17      17      2.000     -10.347 au  C             0.71      1 S               2
                        (    -281.545 eV)               0.71      1 S               4
    18      18      2.000      -0.564 au  C             0.71      2 S               2
                        (     -15.345 eV)               0.71      2 S               4
    19      19       --         0.402 au  C             0.71      3 S               2
                        (      10.943 eV)               0.71      3 S               4
    20      20       --         5.509 au  C             0.71      4 S               2
                        (     149.900 eV)               0.71      4 S               4
    21      21       --        50.546 au  C             0.71      5 S               2
                        (    1375.418 eV)               0.71      5 S               4
    22      22      0.667      -0.188 au  C             0.71      1 P:x             2
                        (      -5.110 eV)              -0.71      1 P:x             4
    23      23       --         0.191 au  C             0.71      2 P:x             2
                        (       5.204 eV)              -0.71      2 P:x             4
    24      24       --         2.089 au  C             0.71      3 P:x             2
                        (      56.851 eV)              -0.71      3 P:x             4
    25      25      0.667      -0.188 au  C             0.71      1 P:z             2
                        (      -5.110 eV)               0.71      1 P:z             4
    26      26       --         0.191 au  C             0.71      2 P:z             2
                        (       5.204 eV)               0.71      2 P:z             4
    27      27       --         2.089 au  C             0.71      3 P:z             2
                        (      56.851 eV)               0.71      3 P:z             4
    28      28       --         1.292 au  C             0.71      1 D:z2            2
                        (      35.150 eV)               0.71      1 D:z2            4
    29      29       --         1.292 au  C             0.71      1 D:x2-y2         2
                        (      35.150 eV)               0.71      1 D:x2-y2         4
    30      30       --         1.292 au  C             0.71      1 D:xz            2
                        (      35.150 eV)              -0.71      1 D:xz            4
    31      31       --         4.084 au  C             0.71      1 F:z3            2
                        (     111.144 eV)               0.71      1 F:z3            4
    32      32       --         4.084 au  C             0.71      1 F:z             2
                        (     111.144 eV)               0.71      1 F:z             4
    33      33       --         4.084 au  C             0.71      1 F:z2x           2
                        (     111.144 eV)              -0.71      1 F:z2x           4
    34      34       --         4.084 au  C             0.71      1 F:x             2
                        (     111.144 eV)              -0.71      1 F:x             4
    35      35      2.000     -10.347 au  C             0.71      1 S               3
                        (    -281.545 eV)               0.71      1 S               5
    36      36      2.000      -0.564 au  C             0.71      2 S               3
                        (     -15.345 eV)               0.71      2 S               5
    37      37       --         0.402 au  C             0.71      3 S               3
                        (      10.943 eV)               0.71      3 S               5
    38      38       --         5.509 au  C             0.71      4 S               3
                        (     149.900 eV)               0.71      4 S               5
    39      39       --        50.546 au  C             0.71      5 S               3
                        (    1375.418 eV)               0.71      5 S               5
    40      40      0.667      -0.188 au  C             0.71      1 P:x             3
                        (      -5.110 eV)              -0.71      1 P:x             5
    41      41       --         0.191 au  C             0.71      2 P:x             3
                        (       5.204 eV)              -0.71      2 P:x             5
    42      42       --         2.089 au  C             0.71      3 P:x             3
                        (      56.851 eV)              -0.71      3 P:x             5
    43      43      0.667      -0.188 au  C             0.71      1 P:z             3
                        (      -5.110 eV)               0.71      1 P:z             5
    44      44       --         0.191 au  C             0.71      2 P:z             3
                        (       5.204 eV)               0.71      2 P:z             5
    45      45       --         2.089 au  C             0.71      3 P:z             3
                        (      56.851 eV)               0.71      3 P:z             5
    46      46       --         1.292 au  C             0.71      1 D:z2            3
                        (      35.150 eV)               0.71      1 D:z2            5
    47      47       --         1.292 au  C             0.71      1 D:x2-y2         3
                        (      35.150 eV)               0.71      1 D:x2-y2         5
    48      48       --         1.292 au  C             0.71      1 D:xz            3
                        (      35.150 eV)              -0.71      1 D:xz            5
    49      49       --         4.084 au  C             0.71      1 F:z3            3
                        (     111.144 eV)               0.71      1 F:z3            5
    50      50       --         4.084 au  C             0.71      1 F:z             3
                        (     111.144 eV)               0.71      1 F:z             5
    51      51       --         4.084 au  C             0.71      1 F:z2x           3
                        (     111.144 eV)              -0.71      1 F:z2x           5
    52      52       --         4.084 au  C             0.71      1 F:x             3
                        (     111.144 eV)              -0.71      1 F:x             5
    53      53      1.000      -0.244 au  H             0.50      1 S               6
                        (      -6.641 eV)               0.50      1 S               7
                                                        0.50      1 S              10
                                                        0.50      1 S              11
    54      54       --         0.104 au  H             0.50      2 S               6
                        (       2.836 eV)               0.50      2 S               7
                                                        0.50      2 S              10
                                                        0.50      2 S              11
    55      55       --         1.564 au  H             0.50      3 S               6
                        (      42.568 eV)               0.50      3 S               7
                                                        0.50      3 S              10
                                                        0.50      3 S              11
    56      56       --         0.436 au  H             0.50      1 P:x             6
                        (      11.864 eV)               0.50      1 P:x             7
                                                       -0.50      1 P:x            10
                                                       -0.50      1 P:x            11
    57      57       --         0.436 au  H             0.50      1 P:y             6
                        (      11.864 eV)              -0.50      1 P:y             7
                                                       -0.50      1 P:y            10
                                                        0.50      1 P:y            11
    58      58       --         0.436 au  H             0.50      1 P:z             6
                        (      11.864 eV)               0.50      1 P:z             7
                                                        0.50      1 P:z            10
                                                        0.50      1 P:z            11
    59      59       --         2.618 au  H             0.50      1 D:z2            6
                        (      71.229 eV)               0.50      1 D:z2            7
                                                        0.50      1 D:z2           10
                                                        0.50      1 D:z2           11
    60      60       --         2.618 au  H             0.50      1 D:x2-y2         6
                        (      71.229 eV)               0.50      1 D:x2-y2         7
                                                        0.50      1 D:x2-y2        10
                                                        0.50      1 D:x2-y2        11
    61      61       --         2.618 au  H             0.50      1 D:xy            6
                        (      71.229 eV)              -0.50      1 D:xy            7
                                                        0.50      1 D:xy           10
                                                       -0.50      1 D:xy           11
    62      62       --         2.618 au  H             0.50      1 D:xz            6
                        (      71.229 eV)               0.50      1 D:xz            7
                                                       -0.50      1 D:xz           10
                                                       -0.50      1 D:xz           11
    63      63       --         2.618 au  H             0.50      1 D:yz            6
                        (      71.229 eV)              -0.50      1 D:yz            7
                                                       -0.50      1 D:yz           10
                                                        0.50      1 D:yz           11
    64      64      1.000      -0.244 au  H             0.50      1 S               8
                        (      -6.641 eV)               0.50      1 S               9
                                                        0.50      1 S              12
                                                        0.50      1 S              13
    65      65       --         0.104 au  H             0.50      2 S               8
                        (       2.836 eV)               0.50      2 S               9
                                                        0.50      2 S              12
                                                        0.50      2 S              13
    66      66       --         1.564 au  H             0.50      3 S               8
                        (      42.568 eV)               0.50      3 S               9
                                                        0.50      3 S              12
                                                        0.50      3 S              13
    67      67       --         0.436 au  H             0.50      1 P:x             8
                        (      11.864 eV)               0.50      1 P:x             9
                                                       -0.50      1 P:x            12
                                                       -0.50      1 P:x            13
    68      68       --         0.436 au  H             0.50      1 P:y             8
                        (      11.864 eV)              -0.50      1 P:y             9
                                                        0.50      1 P:y            12
                                                       -0.50      1 P:y            13
    69      69       --         0.436 au  H             0.50      1 P:z             8
                        (      11.864 eV)               0.50      1 P:z             9
                                                        0.50      1 P:z            12
                                                        0.50      1 P:z            13
    70      70       --         2.618 au  H             0.50      1 D:z2            8
                        (      71.229 eV)               0.50      1 D:z2            9
                                                        0.50      1 D:z2           12
                                                        0.50      1 D:z2           13
    71      71       --         2.618 au  H             0.50      1 D:x2-y2         8
                        (      71.229 eV)               0.50      1 D:x2-y2         9
                                                        0.50      1 D:x2-y2        12
                                                        0.50      1 D:x2-y2        13
    72      72       --         2.618 au  H             0.50      1 D:xy            8
                        (      71.229 eV)              -0.50      1 D:xy            9
                                                       -0.50      1 D:xy           12
                                                        0.50      1 D:xy           13
    73      73       --         2.618 au  H             0.50      1 D:xz            8
                        (      71.229 eV)               0.50      1 D:xz            9
                                                       -0.50      1 D:xz           12
                                                       -0.50      1 D:xz           13
    74      74       --         2.618 au  H             0.50      1 D:yz            8
                        (      71.229 eV)              -0.50      1 D:yz            9
                                                        0.50      1 D:yz           12
                                                       -0.50      1 D:yz           13
    75      75      2.000    -101.573 au  Cl            0.71      1 S              14
                        (   -2763.950 eV)               0.71      1 S              15
    76      76      2.000      -9.507 au  Cl            0.71      2 S              14
                        (    -258.705 eV)               0.71      2 S              15
    77      77      2.000      -0.826 au  Cl            0.71      3 S              14
                        (     -22.469 eV)               0.71      3 S              15
    78      78       --         0.224 au  Cl            0.71      4 S              14
                        (       6.084 eV)               0.71      4 S              15
    79      79       --         2.073 au  Cl            0.71      5 S              14
                        (      56.416 eV)               0.71      5 S              15
    80      80       --        12.919 au  Cl            0.71      6 S              14
                        (     351.531 eV)               0.71      6 S              15
    81      81       --       215.576 au  Cl            0.71      7 S              14
                        (    5866.129 eV)               0.71      7 S              15
    82      82      2.000      -7.261 au  Cl            0.71      1 P:x            14
                        (    -197.594 eV)              -0.71      1 P:x            15
    83      83      1.667      -0.345 au  Cl            0.71      2 P:x            14
                        (      -9.401 eV)              -0.71      2 P:x            15
    84      84       --         0.251 au  Cl            0.71      3 P:x            14
                        (       6.842 eV)              -0.71      3 P:x            15
    85      85       --         2.178 au  Cl            0.71      4 P:x            14
                        (      59.266 eV)              -0.71      4 P:x            15
    86      86       --        19.086 au  Cl            0.71      5 P:x            14
                        (     519.368 eV)              -0.71      5 P:x            15
    87      87      2.000      -7.261 au  Cl            0.71      1 P:z            14
                        (    -197.594 eV)               0.71      1 P:z            15
    88      88      1.667      -0.345 au  Cl            0.71      2 P:z            14
                        (      -9.401 eV)               0.71      2 P:z            15
    89      89       --         0.251 au  Cl            0.71      3 P:z            14
                        (       6.842 eV)               0.71      3 P:z            15
    90      90       --         2.178 au  Cl            0.71      4 P:z            14
                        (      59.266 eV)               0.71      4 P:z            15
    91      91       --        19.086 au  Cl            0.71      5 P:z            14
                        (     519.368 eV)               0.71      5 P:z            15
    92      92       --         0.433 au  Cl            0.71      1 D:z2           14
                        (      11.776 eV)               0.71      1 D:z2           15
    93      93       --         0.433 au  Cl            0.71      1 D:x2-y2        14
                        (      11.776 eV)               0.71      1 D:x2-y2        15
    94      94       --         0.433 au  Cl            0.71      1 D:xz           14
                        (      11.776 eV)              -0.71      1 D:xz           15
    95      95       --         1.240 au  Cl            0.71      1 F:z3           14
                        (      33.755 eV)               0.71      1 F:z3           15
    96      96       --         1.240 au  Cl            0.71      1 F:z            14
                        (      33.755 eV)               0.71      1 F:z            15
    97      97       --         1.240 au  Cl            0.71      1 F:z2x          14
                        (      33.755 eV)              -0.71      1 F:z2x          15
    98      98       --         1.240 au  Cl            0.71      1 F:x            14
                        (      33.755 eV)              -0.71      1 F:x            15



                                       === A2 ===
 Nr. of SFOs :   50
 Cartesian basis functions that participate in this irrep (total number =   156) :
     24    33    45   105    48   108    51   111    57   117
     54   114    67   127    63   123    60    65   120   125
     75   135    78   138    81   141    87   147    84   144
     97   157    93   153    90    95   150   155   159   171
    207   219   160   172   208   220   161   173   209   221
    164   176   212   224   162   163   174   175   210   211
    222   223   170   182   218   230   167   169   179   181
    215   217   227   229   165   166   168   177   178   180
    213   214   216   225   226   228   183   195   231   243
    184   196   232   244   185   197   233   245   188   200
    236   248   186   187   198   199   234   235   246   247
    194   206   242   254   191   193   203   205   239   241
    251   253   189   190   192   201   202   204   237   238
    240   249   250   252   260   298   263   301   269   307
    272   310   275   313   281   319   278   316   291   329
    287   325   284   289   322   327

    SFO  (index         Fragment          Generating    Expansion in Fragment Orbitals
  indx  incl.CFs)   Occup   Orb.Energy   FragmentType  Coeff.   Orbital     on Fragment
 --------------------------------------------------------------------------------------
     1       1       --         0.479 au  S             1.00      1 D:xy            1
                        (      13.042 eV)
     2       2       --         1.328 au  S             1.00      1 F:xyz           1
                        (      36.128 eV)
     3       3      0.667      -0.188 au  C             0.71      1 P:y             2
                        (      -5.110 eV)              -0.71      1 P:y             4
     4       4       --         0.191 au  C             0.71      2 P:y             2
                        (       5.204 eV)              -0.71      2 P:y             4
     5       5       --         2.089 au  C             0.71      3 P:y             2
                        (      56.851 eV)              -0.71      3 P:y             4
     6       6       --         1.292 au  C             0.71      1 D:xy            2
                        (      35.150 eV)               0.71      1 D:xy            4
     7       7       --         1.292 au  C             0.71      1 D:yz            2
                        (      35.150 eV)              -0.71      1 D:yz            4
     8       8       --         4.084 au  C             0.71      1 F:xyz           2
                        (     111.144 eV)               0.71      1 F:xyz           4
     9       9       --         4.084 au  C             0.71      1 F:z2y           2
                        (     111.144 eV)              -0.71      1 F:z2y           4
    10      10       --         4.084 au  C             0.71      1 F:y             2
                        (     111.144 eV)              -0.71      1 F:y             4
    11      11      0.667      -0.188 au  C             0.71      1 P:y             3
                        (      -5.110 eV)              -0.71      1 P:y             5
    12      12       --         0.191 au  C             0.71      2 P:y             3
                        (       5.204 eV)              -0.71      2 P:y             5
    13      13       --         2.089 au  C             0.71      3 P:y             3
                        (      56.851 eV)              -0.71      3 P:y             5
    14      14       --         1.292 au  C             0.71      1 D:xy            3
                        (      35.150 eV)               0.71      1 D:xy            5
    15      15       --         1.292 au  C             0.71      1 D:yz            3
                        (      35.150 eV)              -0.71      1 D:yz            5
    16      16       --         4.084 au  C             0.71      1 F:xyz           3
                        (     111.144 eV)               0.71      1 F:xyz           5
    17      17       --         4.084 au  C             0.71      1 F:z2y           3
                        (     111.144 eV)              -0.71      1 F:z2y           5
    18      18       --         4.084 au  C             0.71      1 F:y             3
                        (     111.144 eV)              -0.71      1 F:y             5
    19      19      1.000      -0.244 au  H             0.50      1 S               6
                        (      -6.641 eV)              -0.50      1 S               7
                                                        0.50      1 S              10
                                                       -0.50      1 S              11
    20      20       --         0.104 au  H             0.50      2 S               6
                        (       2.836 eV)              -0.50      2 S               7
                                                        0.50      2 S              10
                                                       -0.50      2 S              11
    21      21       --         1.564 au  H             0.50      3 S               6
                        (      42.568 eV)              -0.50      3 S               7
                                                        0.50      3 S              10
                                                       -0.50      3 S              11
    22      22       --         0.436 au  H             0.50      1 P:x             6
                        (      11.864 eV)              -0.50      1 P:x             7
                                                       -0.50      1 P:x            10
                                                        0.50      1 P:x            11
    23      23       --         0.436 au  H             0.50      1 P:y             6
                        (      11.864 eV)               0.50      1 P:y             7
                                                       -0.50      1 P:y            10
                                                       -0.50      1 P:y            11
    24      24       --         0.436 au  H             0.50      1 P:z             6
                        (      11.864 eV)              -0.50      1 P:z             7
                                                        0.50      1 P:z            10
                                                       -0.50      1 P:z            11
    25      25       --         2.618 au  H             0.50      1 D:z2            6
                        (      71.229 eV)              -0.50      1 D:z2            7
                                                        0.50      1 D:z2           10
                                                       -0.50      1 D:z2           11
    26      26       --         2.618 au  H             0.50      1 D:x2-y2         6
                        (      71.229 eV)              -0.50      1 D:x2-y2         7
                                                        0.50      1 D:x2-y2        10
                                                       -0.50      1 D:x2-y2        11
    27      27       --         2.618 au  H             0.50      1 D:xy            6
                        (      71.229 eV)               0.50      1 D:xy            7
                                                        0.50      1 D:xy           10
                                                        0.50      1 D:xy           11
    28      28       --         2.618 au  H             0.50      1 D:xz            6
                        (      71.229 eV)              -0.50      1 D:xz            7
                                                       -0.50      1 D:xz           10
                                                        0.50      1 D:xz           11
    29      29       --         2.618 au  H             0.50      1 D:yz            6
                        (      71.229 eV)               0.50      1 D:yz            7
                                                       -0.50      1 D:yz           10
                                                       -0.50      1 D:yz           11
    30      30      1.000      -0.244 au  H             0.50      1 S               8
                        (      -6.641 eV)              -0.50      1 S               9
                                                       -0.50      1 S              12
                                                        0.50      1 S              13
    31      31       --         0.104 au  H             0.50      2 S               8
                        (       2.836 eV)              -0.50      2 S               9
                                                       -0.50      2 S              12
                                                        0.50      2 S              13
    32      32       --         1.564 au  H             0.50      3 S               8
                        (      42.568 eV)              -0.50      3 S               9
                                                       -0.50      3 S              12
                                                        0.50      3 S              13
    33      33       --         0.436 au  H             0.50      1 P:x             8
                        (      11.864 eV)              -0.50      1 P:x             9
                                                        0.50      1 P:x            12
                                                       -0.50      1 P:x            13
    34      34       --         0.436 au  H             0.50      1 P:y             8
                        (      11.864 eV)               0.50      1 P:y             9
                                                       -0.50      1 P:y            12
                                                       -0.50      1 P:y            13
    35      35       --         0.436 au  H             0.50      1 P:z             8
                        (      11.864 eV)              -0.50      1 P:z             9
                                                       -0.50      1 P:z            12
                                                        0.50      1 P:z            13
    36      36       --         2.618 au  H             0.50      1 D:z2            8
                        (      71.229 eV)              -0.50      1 D:z2            9
                                                       -0.50      1 D:z2           12
                                                        0.50      1 D:z2           13
    37      37       --         2.618 au  H             0.50      1 D:x2-y2         8
                        (      71.229 eV)              -0.50      1 D:x2-y2         9
                                                       -0.50      1 D:x2-y2        12
                                                        0.50      1 D:x2-y2        13
    38      38       --         2.618 au  H             0.50      1 D:xy            8
                        (      71.229 eV)               0.50      1 D:xy            9
                                                        0.50      1 D:xy           12
                                                        0.50      1 D:xy           13
    39      39       --         2.618 au  H             0.50      1 D:xz            8
                        (      71.229 eV)              -0.50      1 D:xz            9
                                                        0.50      1 D:xz           12
                                                       -0.50      1 D:xz           13
    40      40       --         2.618 au  H             0.50      1 D:yz            8
                        (      71.229 eV)               0.50      1 D:yz            9
                                                       -0.50      1 D:yz           12
                                                       -0.50      1 D:yz           13
    41      41      2.000      -7.261 au  Cl            0.71      1 P:y            14
                        (    -197.594 eV)              -0.71      1 P:y            15
    42      42      1.667      -0.345 au  Cl            0.71      2 P:y            14
                        (      -9.401 eV)              -0.71      2 P:y            15
    43      43       --         0.251 au  Cl            0.71      3 P:y            14
                        (       6.842 eV)              -0.71      3 P:y            15
    44      44       --         2.178 au  Cl            0.71      4 P:y            14
                        (      59.266 eV)              -0.71      4 P:y            15
    45      45       --        19.086 au  Cl            0.71      5 P:y            14
                        (     519.368 eV)              -0.71      5 P:y            15
    46      46       --         0.433 au  Cl            0.71      1 D:xy           14
                        (      11.776 eV)               0.71      1 D:xy           15
    47      47       --         0.433 au  Cl            0.71      1 D:yz           14
                        (      11.776 eV)              -0.71      1 D:yz           15
    48      48       --         1.240 au  Cl            0.71      1 F:xyz          14
                        (      33.755 eV)               0.71      1 F:xyz          15
    49      49       --         1.240 au  Cl            0.71      1 F:z2y          14
                        (      33.755 eV)              -0.71      1 F:z2y          15
    50      50       --         1.240 au  Cl            0.71      1 F:y            14
                        (      33.755 eV)              -0.71      1 F:y            15



                                       === B1 ===
 Nr. of SFOs :   90
 Cartesian basis functions that participate in this irrep (total number =   243) :
      5     8    14    17    20    25    34    29    32    39
     99    40   100    41   101    42   102    43   103    46
    106    49   109    52   112    44   104    47   107    50
    110    58   118    55   115    53    56   113   116    68
    128    64   124    61    66   121   126    59    62   119
    122    69   129    70   130    71   131    72   132    73
    133    76   136    79   139    82   142    74   134    77
    137    80   140    88   148    85   145    83    86   143
    146    98   158    94   154    91    96   151   156    89
     92   149   152   159   171   207   219   160   172   208
    220   161   173   209   221   164   176   212   224   162
    163   174   175   210   211   222   223   170   182   218
    230   167   169   179   181   215   217   227   229   165
    166   168   177   178   180   213   214   216   225   226
    228   183   195   231   243   184   196   232   244   185
    197   233   245   188   200   236   248   186   187   198
    199   234   235   246   247   194   206   242   254   191
    193   203   205   239   241   251   253   189   190   192
    201   202   204   237   238   240   249   250   252   255
    293   256   294   257   295   258   296   265   303   266
    304   267   305   261   299   264   302   270   308   273
    311   276   314   259   297   262   300   268   306   271
    309   274   312   282   320   279   317   277   280   315
    318   292   330   288   326   285   290   323   328   283
    286   321   324

    SFO  (index         Fragment          Generating    Expansion in Fragment Orbitals
  indx  incl.CFs)   Occup   Orb.Energy   FragmentType  Coeff.   Orbital     on Fragment
 --------------------------------------------------------------------------------------
     1       1      2.000      -5.953 au  S             1.00      1 P:x             1
                        (    -162.002 eV)
     2       2      1.333      -0.272 au  S             1.00      2 P:x             1
                        (      -7.400 eV)
     3       3       --         0.147 au  S             1.00      3 P:x             1
                        (       3.990 eV)
     4       4       --         1.258 au  S             1.00      4 P:x             1
                        (      34.238 eV)
     5       5       --        13.236 au  S             1.00      5 P:x             1
                        (     360.181 eV)
     6       6       --         0.479 au  S             1.00      1 D:xz            1
                        (      13.042 eV)
     7       7       --         1.328 au  S             1.00      1 F:z2x           1
                        (      36.128 eV)
     8       8       --         1.328 au  S             1.00      1 F:x             1
                        (      36.128 eV)
     9       9      2.000     -10.347 au  C             0.71      1 S               2
                        (    -281.545 eV)              -0.71      1 S               4
    10      10      2.000      -0.564 au  C             0.71      2 S               2
                        (     -15.345 eV)              -0.71      2 S               4
    11      11       --         0.402 au  C             0.71      3 S               2
                        (      10.943 eV)              -0.71      3 S               4
    12      12       --         5.509 au  C             0.71      4 S               2
                        (     149.900 eV)              -0.71      4 S               4
    13      13       --        50.546 au  C             0.71      5 S               2
                        (    1375.418 eV)              -0.71      5 S               4
    14      14      0.667      -0.188 au  C             0.71      1 P:x             2
                        (      -5.110 eV)               0.71      1 P:x             4
    15      15       --         0.191 au  C             0.71      2 P:x             2
                        (       5.204 eV)               0.71      2 P:x             4
    16      16       --         2.089 au  C             0.71      3 P:x             2
                        (      56.851 eV)               0.71      3 P:x             4
    17      17      0.667      -0.188 au  C             0.71      1 P:z             2
                        (      -5.110 eV)              -0.71      1 P:z             4
    18      18       --         0.191 au  C             0.71      2 P:z             2
                        (       5.204 eV)              -0.71      2 P:z             4
    19      19       --         2.089 au  C             0.71      3 P:z             2
                        (      56.851 eV)              -0.71      3 P:z             4
    20      20       --         1.292 au  C             0.71      1 D:z2            2
                        (      35.150 eV)              -0.71      1 D:z2            4
    21      21       --         1.292 au  C             0.71      1 D:x2-y2         2
                        (      35.150 eV)              -0.71      1 D:x2-y2         4
    22      22       --         1.292 au  C             0.71      1 D:xz            2
                        (      35.150 eV)               0.71      1 D:xz            4
    23      23       --         4.084 au  C             0.71      1 F:z3            2
                        (     111.144 eV)              -0.71      1 F:z3            4
    24      24       --         4.084 au  C             0.71      1 F:z             2
                        (     111.144 eV)              -0.71      1 F:z             4
    25      25       --         4.084 au  C             0.71      1 F:z2x           2
                        (     111.144 eV)               0.71      1 F:z2x           4
    26      26       --         4.084 au  C             0.71      1 F:x             2
                        (     111.144 eV)               0.71      1 F:x             4
    27      27      2.000     -10.347 au  C             0.71      1 S               3
                        (    -281.545 eV)              -0.71      1 S               5
    28      28      2.000      -0.564 au  C             0.71      2 S               3
                        (     -15.345 eV)              -0.71      2 S               5
    29      29       --         0.402 au  C             0.71      3 S               3
                        (      10.943 eV)              -0.71      3 S               5
    30      30       --         5.509 au  C             0.71      4 S               3
                        (     149.900 eV)              -0.71      4 S               5
    31      31       --        50.546 au  C             0.71      5 S               3
                        (    1375.418 eV)              -0.71      5 S               5
    32      32      0.667      -0.188 au  C             0.71      1 P:x             3
                        (      -5.110 eV)               0.71      1 P:x             5
    33      33       --         0.191 au  C             0.71      2 P:x             3
                        (       5.204 eV)               0.71      2 P:x             5
    34      34       --         2.089 au  C             0.71      3 P:x             3
                        (      56.851 eV)               0.71      3 P:x             5
    35      35      0.667      -0.188 au  C             0.71      1 P:z             3
                        (      -5.110 eV)              -0.71      1 P:z             5
    36      36       --         0.191 au  C             0.71      2 P:z             3
                        (       5.204 eV)              -0.71      2 P:z             5
    37      37       --         2.089 au  C             0.71      3 P:z             3
                        (      56.851 eV)              -0.71      3 P:z             5
    38      38       --         1.292 au  C             0.71      1 D:z2            3
                        (      35.150 eV)              -0.71      1 D:z2            5
    39      39       --         1.292 au  C             0.71      1 D:x2-y2         3
                        (      35.150 eV)              -0.71      1 D:x2-y2         5
    40      40       --         1.292 au  C             0.71      1 D:xz            3
                        (      35.150 eV)               0.71      1 D:xz            5
    41      41       --         4.084 au  C             0.71      1 F:z3            3
                        (     111.144 eV)              -0.71      1 F:z3            5
    42      42       --         4.084 au  C             0.71      1 F:z             3
                        (     111.144 eV)              -0.71      1 F:z             5
    43      43       --         4.084 au  C             0.71      1 F:z2x           3
                        (     111.144 eV)               0.71      1 F:z2x           5
    44      44       --         4.084 au  C             0.71      1 F:x             3
                        (     111.144 eV)               0.71      1 F:x             5
    45      45      1.000      -0.244 au  H             0.50      1 S               6
                        (      -6.641 eV)               0.50      1 S               7
                                                       -0.50      1 S              10
                                                       -0.50      1 S              11
    46      46       --         0.104 au  H             0.50      2 S               6
                        (       2.836 eV)               0.50      2 S               7
                                                       -0.50      2 S              10
                                                       -0.50      2 S              11
    47      47       --         1.564 au  H             0.50      3 S               6
                        (      42.568 eV)               0.50      3 S               7
                                                       -0.50      3 S              10
                                                       -0.50      3 S              11
    48      48       --         0.436 au  H             0.50      1 P:x             6
                        (      11.864 eV)               0.50      1 P:x             7
                                                        0.50      1 P:x            10
                                                        0.50      1 P:x            11
    49      49       --         0.436 au  H             0.50      1 P:y             6
                        (      11.864 eV)              -0.50      1 P:y             7
                                                        0.50      1 P:y            10
                                                       -0.50      1 P:y            11
    50      50       --         0.436 au  H             0.50      1 P:z             6
                        (      11.864 eV)               0.50      1 P:z             7
                                                       -0.50      1 P:z            10
                                                       -0.50      1 P:z            11
    51      51       --         2.618 au  H             0.50      1 D:z2            6
                        (      71.229 eV)               0.50      1 D:z2            7
[...]
                               0.667    -0.177    -0.724
                               0.715    -0.118     0.689
                        -----------------------------------
 
================================================================================
 
 
===  TOTAL NMR SHIELDING TENSOR (ppm)
 
                        ***********************************
                        CARTESIAN AXIS REPRESENTATION

                        ==== total shielding tensor
                        -----------------------------------
                              29.743    -0.898    -1.762
                              -0.898    25.730    -5.065
                              -1.762    -5.065    28.504
                        -----------------------------------
                                  isotropic =     27.992

                        ***********************************
                        -----------------------------------
                        PRINCIPAL AXIS REPRESENTATION

                        ==== Principal components:

                              21.478    29.850    32.649
 
                        ==== Principal Axis System:

                              -0.212     0.926    -0.311
                              -0.767    -0.355    -0.535
                              -0.606     0.125     0.786
                        -----------------------------------
################################################################################
********************************************************************************
****  N U C L E U S : H(13)
 
 ADF-GUI atom: H(13)
 Internal NMR numbering of atoms: H(13)
 
 
================================================================================
 
 
===  PARAMAGNETIC NMR SHIELDING TENSORS (ppm)
 
    ===     paramagnetic b^(1) tensor       ===     paramagnetic u^(1) tensor
    -----------------------------------     -----------------------------------
           0.000     0.000     0.000               4.478   -14.221   -10.373
           0.000     0.000     0.000             -14.221     3.029   -10.149
           0.000     0.000     0.000             -10.373   -10.149     1.471
    -----------------------------------     -----------------------------------
              isotropic =      0.000                  isotropic =      2.993

    ===     paramagnetic s^(1) tensor       ===     paramagnetic gauge tensor
    -----------------------------------     -----------------------------------
          -3.135    14.971     9.918              -0.328    -0.450    -0.232
          14.971    -4.890     9.569              -0.450    -2.019    -0.263
           9.918     9.569    -1.938              -0.232    -0.263     0.062
    -----------------------------------     -----------------------------------
              isotropic =     -3.321                  isotropic =     -0.762

                        ***********************************
                        CARTESIAN AXIS REPRESENTATION

                        ==== total paramagnetic tensor
                        -----------------------------------
                               1.015     0.299    -0.687
                               0.299    -3.880    -0.843
                              -0.687    -0.843    -0.405
                        -----------------------------------
                                  isotropic =     -1.090

                        ***********************************
                        -----------------------------------
                        PRINCIPAL AXIS REPRESENTATION

                        ==== Principal components:

                              -4.077    -0.556     1.363
 
                        ==== Principal Axis System:

                               0.028     0.423    -0.905
                              -0.975    -0.187    -0.117
                              -0.219     0.886     0.408
                        -----------------------------------
 
================================================================================
 
 
===  DIAMAGNETIC NMR SHIELDING TENSORS (ppm)
 
    ===       diamagnetic core tensor       ===    diamagnetic valence tensor
    -----------------------------------     -----------------------------------
           0.000     0.000     0.000              28.728     0.599    -1.075
           0.000     0.000     0.000               0.599    29.609     5.906
           0.000     0.000     0.000              -1.075     5.906    28.909
    -----------------------------------     -----------------------------------
              isotropic =      0.000                  isotropic =     29.082

                        ***********************************
                        CARTESIAN AXIS REPRESENTATION

                        ==== total diamagnetic tensor
                        -----------------------------------
                              28.728     0.599    -1.075
                               0.599    29.609     5.906
                              -1.075     5.906    28.909
                        -----------------------------------
                                  isotropic =     29.082

                        ***********************************
                        -----------------------------------
                        PRINCIPAL AXIS REPRESENTATION

                        ==== Principal components:

                              23.090    28.966    35.190
 
                        ==== Principal Axis System:

                               0.207     0.977     0.047
                              -0.667     0.177    -0.724
                               0.715    -0.118    -0.689
                        -----------------------------------
 
================================================================================
 
 
===  TOTAL NMR SHIELDING TENSOR (ppm)
 
                        ***********************************
                        CARTESIAN AXIS REPRESENTATION

                        ==== total shielding tensor
                        -----------------------------------
                              29.743     0.898    -1.762
                               0.898    25.730     5.064
                              -1.762     5.064    28.504
                        -----------------------------------
                                  isotropic =     27.992

                        ***********************************
                        -----------------------------------
                        PRINCIPAL AXIS REPRESENTATION

                        ==== Principal components:

                              21.479    29.850    32.648
 
                        ==== Principal Axis System:

                               0.213     0.926    -0.311
                              -0.767     0.356     0.535
                               0.606     0.125     0.786
                        -----------------------------------
################################################################################
********************************************************************************
****  N U C L E U S : Cl(14)
 
 ADF-GUI atom: Cl(14)
 Internal NMR numbering of atoms: Cl(14)
 
 
================================================================================
 
 
===  PARAMAGNETIC NMR SHIELDING TENSORS (ppm)
 
    ===     paramagnetic b^(1) tensor       ===     paramagnetic u^(1) tensor
    -----------------------------------     -----------------------------------
           0.000     0.000     0.000            -214.245    -0.211   282.818
           0.000     0.000     0.000              -0.211  -577.546     0.216
           0.000     0.000     0.000             282.818     0.216  -305.329
    -----------------------------------     -----------------------------------
              isotropic =      0.000                  isotropic =   -365.707

    ===     paramagnetic s^(1) tensor       ===     paramagnetic gauge tensor
    -----------------------------------     -----------------------------------
          54.360    -0.000  -123.331              -0.635     0.000     1.099
          -0.000    57.959     0.000               0.000    -2.715    -0.000
        -123.331     0.000     2.082               1.099    -0.000    -3.006
    -----------------------------------     -----------------------------------
              isotropic =     38.134                  isotropic =     -2.119

                        ***********************************
                        CARTESIAN AXIS REPRESENTATION

                        ==== total paramagnetic tensor
                        -----------------------------------
                            -160.519    -0.211   160.586
                              -0.211  -522.302     0.216
                             160.586     0.216  -306.253
                        -----------------------------------
                                  isotropic =   -329.691

                        ***********************************
                        -----------------------------------
                        PRINCIPAL AXIS REPRESENTATION

                        ==== Principal components:

                            -522.303  -409.730   -57.041
 
                        ==== Principal Axis System:

                              -0.002    -0.542    -0.841
                              -1.000     0.003     0.000
                               0.002     0.841    -0.542
                        -----------------------------------
 
================================================================================
 
 
===  DIAMAGNETIC NMR SHIELDING TENSORS (ppm)
 
    ===       diamagnetic core tensor       ===    diamagnetic valence tensor
    -----------------------------------     -----------------------------------
           0.000     0.000     0.000            1149.874     0.000     4.635
           0.000     0.000     0.000               0.000  1142.463    -0.000
           0.000     0.000     0.000               4.635    -0.000  1146.150
    -----------------------------------     -----------------------------------
              isotropic =      0.000                  isotropic =   1146.162

                        ***********************************
                        CARTESIAN AXIS REPRESENTATION

                        ==== total diamagnetic tensor
                        -----------------------------------
                            1149.874     0.000     4.635
                               0.000  1142.463    -0.000
                               4.635    -0.000  1146.150
                        -----------------------------------
                                  isotropic =   1146.162

                        ***********************************
                        -----------------------------------
                        PRINCIPAL AXIS REPRESENTATION

                        ==== Principal components:

                            1142.463  1143.017  1153.007
 
                        ==== Principal Axis System:

                              -0.000    -0.560     0.829
                               1.000    -0.000    -0.000
                               0.000     0.829     0.560
                        -----------------------------------
 
================================================================================
 
 
===  TOTAL NMR SHIELDING TENSOR (ppm)
 
                        ***********************************
                        CARTESIAN AXIS REPRESENTATION

                        ==== total shielding tensor
                        -----------------------------------
                             989.355    -0.211   165.221
                              -0.211   620.160     0.216
                             165.221     0.216   839.897
                        -----------------------------------
                                  isotropic =    816.471

                        ***********************************
                        -----------------------------------
                        PRINCIPAL AXIS REPRESENTATION

                        ==== Principal components:

                             620.160   733.291  1095.961
 
                        ==== Principal Axis System:

                              -0.002    -0.542    -0.840
                              -1.000     0.003     0.000
                               0.002     0.840    -0.542
                        -----------------------------------
################################################################################
********************************************************************************
****  N U C L E U S : Cl(15)
 
 ADF-GUI atom: Cl(15)
 Internal NMR numbering of atoms: Cl(15)
 
 
================================================================================
 
 
===  PARAMAGNETIC NMR SHIELDING TENSORS (ppm)
 
    ===     paramagnetic b^(1) tensor       ===     paramagnetic u^(1) tensor
    -----------------------------------     -----------------------------------
           0.000     0.000     0.000            -214.106     0.001  -283.050
           0.000     0.000     0.000               0.001  -577.944    -0.000
           0.000     0.000     0.000            -283.050    -0.000  -305.760
    -----------------------------------     -----------------------------------
              isotropic =      0.000                  isotropic =   -365.937

    ===     paramagnetic s^(1) tensor       ===     paramagnetic gauge tensor
    -----------------------------------     -----------------------------------
          54.360    -0.000   123.331              -0.635     0.000    -1.099
          -0.000    57.959    -0.000               0.000    -2.715     0.000
         123.331    -0.000     2.082              -1.099     0.000    -3.006
    -----------------------------------     -----------------------------------
              isotropic =     38.134                  isotropic =     -2.119

                        ***********************************
                        CARTESIAN AXIS REPRESENTATION

                        ==== total paramagnetic tensor
                        -----------------------------------
                            -160.381     0.001  -160.818
                               0.001  -522.700    -0.000
                            -160.818    -0.000  -306.684
                        -----------------------------------
                                  isotropic =   -329.921

                        ***********************************
                        -----------------------------------
                        PRINCIPAL AXIS REPRESENTATION

                        ==== Principal components:

                            -522.700  -410.206   -56.859
 
                        ==== Principal Axis System:

                               0.000     0.541    -0.841
                              -1.000     0.000    -0.000
                              -0.000     0.841     0.541
                        -----------------------------------
 
================================================================================
 
 
===  DIAMAGNETIC NMR SHIELDING TENSORS (ppm)
 
    ===       diamagnetic core tensor       ===    diamagnetic valence tensor
    -----------------------------------     -----------------------------------
           0.000     0.000     0.000            1149.874    -0.000    -4.635
           0.000     0.000     0.000              -0.000  1142.463     0.000
           0.000     0.000     0.000              -4.635     0.000  1146.150
    -----------------------------------     -----------------------------------
              isotropic =      0.000                  isotropic =   1146.162

                        ***********************************
                        CARTESIAN AXIS REPRESENTATION

                        ==== total diamagnetic tensor
                        -----------------------------------
                            1149.874    -0.000    -4.635
                              -0.000  1142.463     0.000
                              -4.635     0.000  1146.150
                        -----------------------------------
                                  isotropic =   1146.162

                        ***********************************
                        -----------------------------------
                        PRINCIPAL AXIS REPRESENTATION

                        ==== Principal components:

                            1142.463  1143.017  1153.007
 
                        ==== Principal Axis System:

                              -0.000     0.560     0.829
                               1.000     0.000    -0.000
                              -0.000     0.829    -0.560
                        -----------------------------------
 
================================================================================
 
 
===  TOTAL NMR SHIELDING TENSOR (ppm)
 
                        ***********************************
                        CARTESIAN AXIS REPRESENTATION

                        ==== total shielding tensor
                        -----------------------------------
                             989.494     0.001  -165.453
                               0.001   619.763    -0.000
                            -165.453    -0.000   839.466
                        -----------------------------------
                                  isotropic =    816.241

                        ***********************************
                        -----------------------------------
                        PRINCIPAL AXIS REPRESENTATION

                        ==== Principal components:

                             619.763   732.816  1096.143
 
                        ==== Principal Axis System:

                               0.000     0.542    -0.841
                              -1.000     0.000    -0.000
                              -0.000     0.841     0.542
                        -----------------------------------
 *******************************************************************************

                             N M R   E X I T
 NORMAL TERMINATION



 =================
 Timing Statistics
 =================
  
 Total Used :                     CPU=      166.88      System=        3.51     Elapsed=      179.01

 Calls  Section                     ( Mean, Percentage )
 ---------------------------------------------------------------------------------------------------
     3  ><      ................      0.00    0.00             0.00    0.01             0.00    0.00
     1  INIT    ................      0.55    0.33             0.02    0.63             0.57    0.32
     1  RDEIGX  ................     44.49   26.66             0.56   15.80            46.83   26.16
     1  AOF1K   ................      2.62    1.57             0.02    0.43             2.66    1.49
    15  AOPKK   ................      4.41   39.65             0.18   77.58             4.90   41.09
    15  XSIGP   ................      0.02    0.17             0.00    0.56             0.02    0.18
    15  AODKKK  ................      3.51   31.56             0.01    4.41             3.66   30.69
    15  XDV     ................      0.01    0.06             0.00    0.24             0.01    0.06
    15  XSIGD   ................      0.00    0.00             0.00    0.00             0.00    0.00
     1  EXIT PROCEDURE .........      0.00    0.00             0.01    0.34             0.01    0.01


 Currently Open Files (EXIT00)
 ====================

 Unit    Access Format  Status   Type       Ident (file)
 -------------------------------------------------------
   3      SEQ    FORM   TRANSP  NORMAL      LOGFILE
                                          ( /home/milias/Work/projects/open-collection/theoretical_chemistry/projects/nmr_diplomovky/HD/ams/b3lyp_tz2p_good/cosmo-acetone/HD.geopt_freq_nmr_shield_b3lyp_tz2p_good_cosmo-acetone.logfile )
