

 Parallel Execution: Process Information
 ==============================================================================
 Rank   Node Name                              NodeID   MyNodeRank  NodeMaster
    0   ubuntu-kch                                0          0          0
    1   ubuntu-kch                                0          1         -1
    2   ubuntu-kch                                0          2         -1
    3   ubuntu-kch                                0          3         -1
 ==============================================================================


May use up to 7570MB of RAM as shared memory on node 0

 *******************************************************************************
 *                                                                             *
 *  --------------------------------                                           *
 *   Amsterdam Modeling Suite (AMS)              2021.105                      *
 *  --------------------------------                                           *
 *                                               r97261 2021-09-16             *
 *                                                                             *
 *                                                                             *
 *                              =================                              *
 *                              |               |                              *
 *                              |     A M S     |                              *
 *                              |               |                              *
 *                              =================                              *
 *                                                                             *
 *                                                                             *
 *   Online information and documentation:  https://www.scm.com/support/       *
 *   E-mail:  support@scm.com   info@scm.com                                   *
 *                                                                             *
 *   Scientific publications using AMS results must be properly referenced     *
 *   See the User Manuals (or the web site) for recommended citations          *
 *   The terms and conditions of the End User License Agreement apply to       *
 *   the use of AMS, https://www.scm.com/license-terms/                        *
 *                                                                             *
 **********************  x86_64_linux_intel / intelmpi  ************************
 
 Licensed to: Dr. Miroslav Ilias / Matej Bel University, Department Chemistry, Fac. Natural Sciences / Banska Bystrica / SLOVAKIA
 SCM User ID: u17848
  
 AMS 2021.105  RunTime: Dec01-2021 22:21:47  ShM Nodes: 1  Procs: 4

 AMS jobname: ams
 AMS jobid  : 1922755675

 Start   directory: /home/milias/work/projects/open-collection/theoretical_chemistry/projects/nmr_diplomovky/derivaty_markerov/derivative_7_Ivan/ams/srzora/basis_qz4p-j/tmp.milias.354568.0.noindex/
 Results directory: /home/milias/work/projects/open-collection/theoretical_chemistry/projects/nmr_diplomovky/derivaty_markerov/derivative_7_Ivan/ams/srzora/basis_qz4p-j/der7.nmr_opbe_srzora_gnuc_qz4p-j_good_cosmo-chcl3.results/
 Scratch directory: /tmp/amstmp_ams_kid0.1922755675/


 Communication costs MPI_COMM_WORLD:      0.297 usec per message,   0.0034 usec per 8-byte item
 Communication costs for intra-node:      0.233 usec per message,   0.0035 usec per 8-byte item

 RNG seed: -990665607 -922637456 599023221 -280913669 -1768143919 1815995021 1904955642 1067664459



                      ************************************************************************
                      *  ADF 2021.105  RunTime: Dec01-2021 22:21:48  ShM Nodes: 1  Procs: 4  *
                      ************************************************************************
  
       ****************************
       * SINGLE POINT CALCULATION *
       ****************************
 
--------
Geometry
--------
Formula: C12H25O3P
Atoms
  Index Symbol   x (angstrom)   y (angstrom)   z (angstrom)
      1      O     3.37860868    -0.46689047     0.06150836       adf.R=1.517
      2      P     2.30535561     0.22998237    -0.96050630       adf.R=1.850
      3      O     1.50966689     1.30585036    -0.00883072       adf.R=1.517
      4      O     1.09841194    -0.88740277    -0.87131108       adf.R=1.517
      5      C     0.40286340     0.71414025     0.71558852       adf.R=1.700
      6      C    -0.10906540    -0.37705424    -0.26725722       adf.R=1.700
      7      C     0.92416919     0.14272307     2.02632587       adf.R=1.700
      8      C    -0.59579806     1.82108522     0.98813253       adf.R=1.700
      9      C    -0.97890227     0.18916929    -1.38103519       adf.R=1.700
     10      C    -0.81046958    -1.53896318     0.40778392       adf.R=1.700
     11      H     0.10095836    -0.20032798     2.65600725       adf.R=1.350
     12      H     1.61322194    -0.68401349     1.85762908       adf.R=1.350
     13      H     1.45866830     0.92855084     2.56223116       adf.R=1.350
     14      H    -0.85951911     2.35393187     0.07605112       adf.R=1.350
     15      H    -1.50562839     1.41366398     1.43571542       adf.R=1.350
     16      H    -0.16566387     2.53702792     1.68987027       adf.R=1.350
     17      H    -1.95968377     0.49103018    -1.00937839       adf.R=1.350
     18      H    -0.50441732     1.05000499    -1.85500153       adf.R=1.350
     19      H    -1.12048191    -0.58241897    -2.13870944       adf.R=1.350
     20      H    -1.69322231    -1.19092136     0.94986249       adf.R=1.350
     21      H    -1.13750129    -2.25588685    -0.34649025       adf.R=1.350
     22      H    -0.14852541    -2.05280818     1.10257660       adf.R=1.350
     23      C     4.75872897    -0.53095051    -0.34363266       adf.R=1.700
     24      C     5.62151446     0.27251405     0.65029466       adf.R=1.700
     25      H     4.45445368    -2.45472132    -1.23408393       adf.R=1.350
     26      H     4.99278984    -2.53131755     0.44288621       adf.R=1.350
     27      C     5.48644905    -0.27347337     2.06999903       adf.R=1.700
     28      C     5.16611810     1.73147851     0.62536351       adf.R=1.700
     29      H     6.14403202    -2.11960976    -0.84325605       adf.R=1.350
     30      C     5.11664255    -1.99492270    -0.49913274       adf.R=1.700
     31      H     4.85255349    -0.03913089    -1.32211032       adf.R=1.350
     32      C     7.08412785     0.21045171     0.20921761       adf.R=1.700
     33      H     5.79219203     2.33389635     1.28819613       adf.R=1.350
     34      H     4.13035900     1.83402046     0.95201868       adf.R=1.350
     35      H     5.24614920     2.15190936    -0.38163151       adf.R=1.350
     36      H     5.86461004    -1.29497271     2.15114777       adf.R=1.350
     37      H     4.44377294    -0.26705422     2.39215905       adf.R=1.350
     38      H     6.06038413     0.34532651     2.76445519       adf.R=1.350
     39      H     7.68809517     0.87759696     0.82872484       adf.R=1.350
     40      H     7.20118058     0.52950606    -0.83066395       adf.R=1.350
     41      H     7.50033830    -0.79394788     0.30677456       adf.R=1.350
 
Total System Charge             0.00000
Bonding info available!
 
 
----------------
ADF Engine Input
----------------
 
 Basis
 Type QZ4P-J
 Core None
 End
 Save TAPE10
 XC
 GGA OPBE
 End
 Symmetry NOSYM
 Solvation
 Surf Delley
 Solv name=Chloroform cav0=0.0 cav1=0.0067639
 Charged method=CONJ
 C-Mat POT
 SCF VAR ALL
 CSMRSP
 End
 NumericalQuality Good
 NuclearModel Gaussian
 

 Title: *** (NO TITLE) ***

 *** adf ***



 ===========================
 A T T A C H E D   F I L E S
 ===========================
  



 ===============================
 M O D E L   P A R A M E T E R S
 ===============================
  
 DENSITY FUNCTIONAL POTENTIAL (scf)
    LDA:                               VWN                                      
    Gradient Corrections:              OPTX PBEc                               == Not Default ==

 SPIN  (restricted / unrestr.)
    Molecule:                          Restricted                               
    Fragments:                         Restricted                               

 OTHER ASPECTS
    Relativistic Corrections:          scalar (ZORA,MAPA)                       

    Nuclear Charge Density Model:      Gaussian Charge Distributions            *** SPECIAL ***
    Core Treatment:                    Frozen Orbital(s)                        

    Hyperfine or Zeeman Interaction:   ---                                      

 SOLVATION
-------------------------------------------

  The Delley construction of COSMO surface surface is calculated

       Division Level for Surface Triangles (NDIV)                  3
       Final Division Level for Triangles (NFDIV)                   1
       Radius of the Solvent (RSOL)                           3.17000 angstr
  Dielectric Constant (EPSL)                                  4.80000

       COSMO equation is solved iteratively-               conjugate-gradient

       Maximun of Iterations for Charges (NCIX)                  1000
       Criterion for Charge convergence (CCNV)                1.0E-08

  COSMO charges included variationally in SCF

       COSMO included at every SCF cycle

  Geometry-dependent empirical factor                         0.00000

  C-Matrix calculated in cspmtx

  In cspmtx, C-Matrix calculated using fitted potential

-------------------------------------------



 Fragment File(s)
 ----------------
 O:
         file : /home/milias/work/projects/open-collection/theoretical_chemistry/projects/nmr_diplomovky/derivaty_markerov/derivative_7_Ivan/ams/srzora/basis_qz4p-j/der7.nmr_opbe_srzora_gnuc_qz4p-j_good_cosmo-chcl3.results/t21.46CF9F30.O
         jobid: 0
         title: Oxygen (QZ4P-J)
 P:
         file : /home/milias/work/projects/open-collection/theoretical_chemistry/projects/nmr_diplomovky/derivaty_markerov/derivative_7_Ivan/ams/srzora/basis_qz4p-j/der7.nmr_opbe_srzora_gnuc_qz4p-j_good_cosmo-chcl3.results/t21.5A4843A4.P
         jobid: 0
         title: Phosphorus (QZ4P-J)
 C:
         file : /home/milias/work/projects/open-collection/theoretical_chemistry/projects/nmr_diplomovky/derivaty_markerov/derivative_7_Ivan/ams/srzora/basis_qz4p-j/der7.nmr_opbe_srzora_gnuc_qz4p-j_good_cosmo-chcl3.results/t21.4A353DD.C
         jobid: 0
         title: Carbon (QZ4P-J)
 H:
         file : /home/milias/work/projects/open-collection/theoretical_chemistry/projects/nmr_diplomovky/derivaty_markerov/derivative_7_Ivan/ams/srzora/basis_qz4p-j/der7.nmr_opbe_srzora_gnuc_qz4p-j_good_cosmo-chcl3.results/t21.69E2D2FB.H
         jobid: 0
         title: Hydrogen (QZ4P-J)



 ===============
 G E O M E T R Y  ***  3D  Molecule  ***
 ===============
  

 ATOMS
 =====                            X Y Z                    CHARGE                     RADIUS
                                (Angstrom)             Nucl     +Core       At.Mass (Angstrom)
                       --------------------------    ----------------       ------- ----------
    1  O               3.3786   -0.4669    0.0615      8.00      8.00       15.9949    1.5170
    2  P               2.3054    0.2300   -0.9605     15.00     15.00       30.9738    1.8500
    3  O               1.5097    1.3059   -0.0088      8.00      8.00       15.9949    1.5170
    4  O               1.0984   -0.8874   -0.8713      8.00      8.00       15.9949    1.5170
    5  C               0.4029    0.7141    0.7156      6.00      6.00       12.0000    1.7000
    6  C              -0.1091   -0.3771   -0.2673      6.00      6.00       12.0000    1.7000
    7  C               0.9242    0.1427    2.0263      6.00      6.00       12.0000    1.7000
    8  C              -0.5958    1.8211    0.9881      6.00      6.00       12.0000    1.7000
    9  C              -0.9789    0.1892   -1.3810      6.00      6.00       12.0000    1.7000
   10  C              -0.8105   -1.5390    0.4078      6.00      6.00       12.0000    1.7000
   11  H               0.1010   -0.2003    2.6560      1.00      1.00        1.0078    1.3500
   12  H               1.6132   -0.6840    1.8576      1.00      1.00        1.0078    1.3500
   13  H               1.4587    0.9286    2.5622      1.00      1.00        1.0078    1.3500
   14  H              -0.8595    2.3539    0.0761      1.00      1.00        1.0078    1.3500
   15  H              -1.5056    1.4137    1.4357      1.00      1.00        1.0078    1.3500
   16  H              -0.1657    2.5370    1.6899      1.00      1.00        1.0078    1.3500
   17  H              -1.9597    0.4910   -1.0094      1.00      1.00        1.0078    1.3500
   18  H              -0.5044    1.0500   -1.8550      1.00      1.00        1.0078    1.3500
   19  H              -1.1205   -0.5824   -2.1387      1.00      1.00        1.0078    1.3500
   20  H              -1.6932   -1.1909    0.9499      1.00      1.00        1.0078    1.3500
   21  H              -1.1375   -2.2559   -0.3465      1.00      1.00        1.0078    1.3500
   22  H              -0.1485   -2.0528    1.1026      1.00      1.00        1.0078    1.3500
   23  C               4.7587   -0.5310   -0.3436      6.00      6.00       12.0000    1.7000
   24  C               5.6215    0.2725    0.6503      6.00      6.00       12.0000    1.7000
   25  H               4.4545   -2.4547   -1.2341      1.00      1.00        1.0078    1.3500
   26  H               4.9928   -2.5313    0.4429      1.00      1.00        1.0078    1.3500
   27  C               5.4864   -0.2735    2.0700      6.00      6.00       12.0000    1.7000
   28  C               5.1661    1.7315    0.6254      6.00      6.00       12.0000    1.7000
   29  H               6.1440   -2.1196   -0.8433      1.00      1.00        1.0078    1.3500
   30  C               5.1166   -1.9949   -0.4991      6.00      6.00       12.0000    1.7000
   31  H               4.8526   -0.0391   -1.3221      1.00      1.00        1.0078    1.3500
   32  C               7.0841    0.2105    0.2092      6.00      6.00       12.0000    1.7000
   33  H               5.7922    2.3339    1.2882      1.00      1.00        1.0078    1.3500
   34  H               4.1304    1.8340    0.9520      1.00      1.00        1.0078    1.3500
   35  H               5.2461    2.1519   -0.3816      1.00      1.00        1.0078    1.3500
   36  H               5.8646   -1.2950    2.1511      1.00      1.00        1.0078    1.3500
   37  H               4.4438   -0.2671    2.3922      1.00      1.00        1.0078    1.3500
   38  H               6.0604    0.3453    2.7645      1.00      1.00        1.0078    1.3500
   39  H               7.6881    0.8776    0.8287      1.00      1.00        1.0078    1.3500
   40  H               7.2012    0.5295   -0.8307      1.00      1.00        1.0078    1.3500
   41  H               7.5003   -0.7939    0.3068      1.00      1.00        1.0078    1.3500


 FRAGMENTS
 =========                                     Atoms in this Fragment     Cart. coord.s (Angstrom)
                                               -------------------------------------------------------
    1  O                                                 1  O            3.3786   -0.4669    0.0615
    2  O                                                 3  O            1.5097    1.3059   -0.0088
    3  O                                                 4  O            1.0984   -0.8874   -0.8713
    4  P                                                 2  P            2.3054    0.2300   -0.9605
    5  C                                                 5  C            0.4029    0.7141    0.7156
    6  C                                                 6  C           -0.1091   -0.3771   -0.2673
    7  C                                                 7  C            0.9242    0.1427    2.0263
    8  C                                                 8  C           -0.5958    1.8211    0.9881
    9  C                                                 9  C           -0.9789    0.1892   -1.3810
   10  C                                                10  C           -0.8105   -1.5390    0.4078
   11  C                                                23  C            4.7587   -0.5310   -0.3436
   12  C                                                24  C            5.6215    0.2725    0.6503
   13  C                                                27  C            5.4864   -0.2735    2.0700
   14  C                                                28  C            5.1661    1.7315    0.6254
   15  C                                                30  C            5.1166   -1.9949   -0.4991
   16  C                                                32  C            7.0841    0.2105    0.2092
   17  H                                                11  H            0.1010   -0.2003    2.6560
   18  H                                                12  H            1.6132   -0.6840    1.8576
   19  H                                                13  H            1.4587    0.9286    2.5622
   20  H                                                14  H           -0.8595    2.3539    0.0761
   21  H                                                15  H           -1.5056    1.4137    1.4357
   22  H                                                16  H           -0.1657    2.5370    1.6899
   23  H                                                17  H           -1.9597    0.4910   -1.0094
   24  H                                                18  H           -0.5044    1.0500   -1.8550
   25  H                                                19  H           -1.1205   -0.5824   -2.1387
   26  H                                                20  H           -1.6932   -1.1909    0.9499
   27  H                                                21  H           -1.1375   -2.2559   -0.3465
   28  H                                                22  H           -0.1485   -2.0528    1.1026
   29  H                                                25  H            4.4545   -2.4547   -1.2341
   30  H                                                26  H            4.9928   -2.5313    0.4429
   31  H                                                29  H            6.1440   -2.1196   -0.8433
   32  H                                                31  H            4.8526   -0.0391   -1.3221
   33  H                                                33  H            5.7922    2.3339    1.2882
   34  H                                                34  H            4.1304    1.8340    0.9520
   35  H                                                35  H            5.2461    2.1519   -0.3816
   36  H                                                36  H            5.8646   -1.2950    2.1511
   37  H                                                37  H            4.4438   -0.2671    2.3922
   38  H                                                38  H            6.0604    0.3453    2.7645
   39  H                                                39  H            7.6881    0.8776    0.8287
   40  H                                                40  H            7.2012    0.5295   -0.8307
   41  H                                                41  H            7.5003   -0.7939    0.3068



 =====================================
 S Y M M E T R Y ,   E L E C T R O N S
 =====================================
  
 Symmetry: NOSYM

 Irreducible Representations, including subspecies
 -------------------------------------------------
 A


 Configuration of Valence Electrons
 ==================================
 ( determined in the SCF procedure )

 Total:   136

 Net Charge: 0 (Nuclei minus Electrons)

 Aufbau principle for MO occupations will be applied through SCF cycle no.     150
 Thereafter, the program will assign electrons to MOs that are spatially
 similar to the occupied MOs in a "reference" cycle ("KeepOrbitals").
 The reference cycle is always the PREVIOUS cycle: it will evolve with
 the SCF procedure.
1
 ***************************************************************************************************



                                      ****************************************
                                      *  B U I L D : (Fragments, Functions)  *
                                      ****************************************
  

 Total nr. of (C)SFOs (summation over all irreps) :  2110

 Specify PRINT SFO in the input file to get a full list

 Nr. of SFOs for ir.rep.           A :  2110



 ================================
 (Slater-type)  F U N C T I O N S  ***  (Basis and Fit)  ***
 ================================
  

 Atom Type    1  (O)
 ==============

 Valence Basis Sets:  27
 -----------------------
   1 S 4000.000000
   1 S  800.000000
   1 S  200.000000
   1 S   80.000000
   1 S   32.000000
   1 S   14.800000
   1 S    8.750000
   1 S    6.650000
   2 S    7.100000
   2 S    3.200000
   2 S    2.050000
   2 S    1.500000
   2 S    0.750000
   2 P   80.000000
   2 P   32.000000
   2 P   14.800000
   2 P    5.700000
   2 P    3.050000
   2 P    1.650000
   2 P    1.000000
   3 D   10.000000
   3 D    5.000000
   3 D    2.500000
   3 D    1.500000
   4 F    8.000000
   4 F    4.000000
   4 F    2.000000

 Atom Type    2  (P)
 ==============

 Valence Basis Sets:  33
 -----------------------
   1 S 7500.000000
   1 S 1500.000000
   1 S  375.000000
   1 S  120.000000
   1 S   48.700000
   1 S   17.800000
   1 S   13.350000
   2 S   14.000000
   2 S    5.950000
   2 S    4.250000
   3 S    3.300000
   3 S    2.750000
   3 S    1.800000
   3 S    1.250000
   2 P  120.000000
   2 P   48.700000
   2 P   17.800000
   2 P   10.250000
   2 P    5.900000
   2 P    3.800000
   3 P    3.250000
   3 P    2.250000
   3 P    1.350000
   3 P    0.850000
   3 D   20.000000
   3 D    8.000000
   3 D    4.000000
   3 D    2.000000
   3 D    1.000000
   4 F   12.500000
   4 F    5.000000
   4 F    2.500000
   4 F    1.250000

 Atom Type    3  (C)
 ==============

 Valence Basis Sets:  26
 -----------------------
   1 S 3000.000000
   1 S  600.000000
   1 S  150.000000
   1 S   60.000000
   1 S   24.000000
   1 S   11.400000
   1 S    6.600000
   1 S    4.850000
   2 S    5.900000
   2 S    2.550000
   2 S    1.650000
   2 S    1.160000
   2 P   60.000000
   2 P   24.000000
   2 P   11.400000
   2 P    5.150000
   2 P    2.400000
   2 P    1.300000
   2 P    0.780000
   3 D   10.000000
   3 D    5.000000
   3 D    2.500000
   3 D    1.500000
   4 F    8.000000
   4 F    4.000000
   4 F    2.000000

 Atom Type    4  (H)
 ==============

 Valence Basis Sets:  16
 -----------------------
   1 S  500.000000
   1 S  100.000000
   1 S   25.000000
   1 S    7.500000
   1 S    3.300000
   1 S    2.000000
   1 S    1.400000
   1 S    1.000000
   1 S    0.710000
   2 P   10.000000
   2 P    4.000000
   2 P    2.000000
   2 P    1.000000
   3 D    5.000000
   3 D    2.500000
   3 D    1.500000


 BAS: List of all Elementary Cartesian Basis Functions
 =====================================================

 The numbering in the list below (to the right of the function characteristics) is referred
 to in print-outs of MO eigenvectors and Mulliken populations in the BAS representation
 (as contrasted to the SFO representation).

 Notes:
 1. The functions are characterized by a polynomial prefactor (powers of x,y,z and r) and
    an exponential decay factor alpha.
 2. Since the basis sets are specific for an atom TYPE, the individual functions occur on
    all atoms of that type.
 3. The word 'Core' in the left margin signals that it is a Core Function (CF) : not a
    degree of freedom in the valence set, but only used to ensure orthogonalization of
    the other valence basis functions on the frozen Core Orbitals.


 (power of) X  Y  Z  R     Alpha  on Atom
            ==========     =====     ==========

 O                                    1    2    3
                                  ---------------------------------------------------------------------------
            0  0  0  0  4000.000      1   89  177
            0  0  0  0   800.000      2   90  178
            0  0  0  0   200.000      3   91  179
            0  0  0  0    80.000      4   92  180
            0  0  0  0    32.000      5   93  181
            0  0  0  0    14.800      6   94  182
            0  0  0  0     8.750      7   95  183
            0  0  0  0     6.650      8   96  184
            0  0  0  1     7.100      9   97  185
            0  0  0  1     3.200     10   98  186
            0  0  0  1     2.050     11   99  187
            0  0  0  1     1.500     12  100  188
            0  0  0  1     0.750     13  101  189
            1  0  0  0    80.000     14  102  190
            0  1  0  0    80.000     15  103  191
            0  0  1  0    80.000     16  104  192
            1  0  0  0    32.000     17  105  193
            0  1  0  0    32.000     18  106  194
            0  0  1  0    32.000     19  107  195
            1  0  0  0    14.800     20  108  196
            0  1  0  0    14.800     21  109  197
            0  0  1  0    14.800     22  110  198
            1  0  0  0     5.700     23  111  199
            0  1  0  0     5.700     24  112  200
            0  0  1  0     5.700     25  113  201
            1  0  0  0     3.050     26  114  202
            0  1  0  0     3.050     27  115  203
            0  0  1  0     3.050     28  116  204
            1  0  0  0     1.650     29  117  205
            0  1  0  0     1.650     30  118  206
            0  0  1  0     1.650     31  119  207
            1  0  0  0     1.000     32  120  208
            0  1  0  0     1.000     33  121  209
            0  0  1  0     1.000     34  122  210
            2  0  0  0    10.000     35  123  211
            1  1  0  0    10.000     36  124  212
            1  0  1  0    10.000     37  125  213
            0  2  0  0    10.000     38  126  214
            0  1  1  0    10.000     39  127  215
            0  0  2  0    10.000     40  128  216
            2  0  0  0     5.000     41  129  217
            1  1  0  0     5.000     42  130  218
            1  0  1  0     5.000     43  131  219
            0  2  0  0     5.000     44  132  220
            0  1  1  0     5.000     45  133  221
            0  0  2  0     5.000     46  134  222
            2  0  0  0     2.500     47  135  223
            1  1  0  0     2.500     48  136  224
            1  0  1  0     2.500     49  137  225
            0  2  0  0     2.500     50  138  226
            0  1  1  0     2.500     51  139  227
            0  0  2  0     2.500     52  140  228
            2  0  0  0     1.500     53  141  229
            1  1  0  0     1.500     54  142  230
            1  0  1  0     1.500     55  143  231
            0  2  0  0     1.500     56  144  232
            0  1  1  0     1.500     57  145  233
            0  0  2  0     1.500     58  146  234
            3  0  0  0     8.000     59  147  235
            2  1  0  0     8.000     60  148  236
            2  0  1  0     8.000     61  149  237
            1  2  0  0     8.000     62  150  238
            1  1  1  0     8.000     63  151  239
            1  0  2  0     8.000     64  152  240
            0  3  0  0     8.000     65  153  241
            0  2  1  0     8.000     66  154  242
            0  1  2  0     8.000     67  155  243
            0  0  3  0     8.000     68  156  244
            3  0  0  0     4.000     69  157  245
            2  1  0  0     4.000     70  158  246
            2  0  1  0     4.000     71  159  247
            1  2  0  0     4.000     72  160  248
            1  1  1  0     4.000     73  161  249
            1  0  2  0     4.000     74  162  250
            0  3  0  0     4.000     75  163  251
            0  2  1  0     4.000     76  164  252
            0  1  2  0     4.000     77  165  253
            0  0  3  0     4.000     78  166  254
            3  0  0  0     2.000     79  167  255
            2  1  0  0     2.000     80  168  256
            2  0  1  0     2.000     81  169  257
            1  2  0  0     2.000     82  170  258
            1  1  1  0     2.000     83  171  259
            1  0  2  0     2.000     84  172  260
            0  3  0  0     2.000     85  173  261
            0  2  1  0     2.000     86  174  262
            0  1  2  0     2.000     87  175  263
            0  0  3  0     2.000     88  176  264

 P                                    4
                                  ---------------------------------------------------------------------------
            0  0  0  0  7500.000    265
            0  0  0  0  1500.000    266
            0  0  0  0   375.000    267
            0  0  0  0   120.000    268
            0  0  0  0    48.700    269
            0  0  0  0    17.800    270
            0  0  0  0    13.350    271
            0  0  0  1    14.000    272
            0  0  0  1     5.950    273
            0  0  0  1     4.250    274
            0  0  0  2     3.300    275
            0  0  0  2     2.750    276
            0  0  0  2     1.800    277
            0  0  0  2     1.250    278
            1  0  0  0   120.000    279
            0  1  0  0   120.000    280
            0  0  1  0   120.000    281
            1  0  0  0    48.700    282
            0  1  0  0    48.700    283
            0  0  1  0    48.700    284
            1  0  0  0    17.800    285
            0  1  0  0    17.800    286
            0  0  1  0    17.800    287
            1  0  0  0    10.250    288
            0  1  0  0    10.250    289
            0  0  1  0    10.250    290
            1  0  0  0     5.900    291
            0  1  0  0     5.900    292
            0  0  1  0     5.900    293
            1  0  0  0     3.800    294
            0  1  0  0     3.800    295
            0  0  1  0     3.800    296
            1  0  0  1     3.250    297
            0  1  0  1     3.250    298
            0  0  1  1     3.250    299
            1  0  0  1     2.250    300
            0  1  0  1     2.250    301
            0  0  1  1     2.250    302
            1  0  0  1     1.350    303
            0  1  0  1     1.350    304
            0  0  1  1     1.350    305
            1  0  0  1     0.850    306
            0  1  0  1     0.850    307
            0  0  1  1     0.850    308
            2  0  0  0    20.000    309
            1  1  0  0    20.000    310
            1  0  1  0    20.000    311
            0  2  0  0    20.000    312
            0  1  1  0    20.000    313
            0  0  2  0    20.000    314
            2  0  0  0     8.000    315
            1  1  0  0     8.000    316
            1  0  1  0     8.000    317
            0  2  0  0     8.000    318
            0  1  1  0     8.000    319
            0  0  2  0     8.000    320
            2  0  0  0     4.000    321
            1  1  0  0     4.000    322
            1  0  1  0     4.000    323
            0  2  0  0     4.000    324
            0  1  1  0     4.000    325
            0  0  2  0     4.000    326
            2  0  0  0     2.000    327
            1  1  0  0     2.000    328
            1  0  1  0     2.000    329
            0  2  0  0     2.000    330
            0  1  1  0     2.000    331
            0  0  2  0     2.000    332
            2  0  0  0     1.000    333
            1  1  0  0     1.000    334
            1  0  1  0     1.000    335
            0  2  0  0     1.000    336
            0  1  1  0     1.000    337
            0  0  2  0     1.000    338
            3  0  0  0    12.500    339
            2  1  0  0    12.500    340
            2  0  1  0    12.500    341
            1  2  0  0    12.500    342
            1  1  1  0    12.500    343
            1  0  2  0    12.500    344
            0  3  0  0    12.500    345
            0  2  1  0    12.500    346
            0  1  2  0    12.500    347
            0  0  3  0    12.500    348
            3  0  0  0     5.000    349
            2  1  0  0     5.000    350
            2  0  1  0     5.000    351
            1  2  0  0     5.000    352
            1  1  1  0     5.000    353
            1  0  2  0     5.000    354
            0  3  0  0     5.000    355
            0  2  1  0     5.000    356
            0  1  2  0     5.000    357
            0  0  3  0     5.000    358
            3  0  0  0     2.500    359
            2  1  0  0     2.500    360
            2  0  1  0     2.500    361
            1  2  0  0     2.500    362
            1  1  1  0     2.500    363
            1  0  2  0     2.500    364
            0  3  0  0     2.500    365
            0  2  1  0     2.500    366
            0  1  2  0     2.500    367
            0  0  3  0     2.500    368
            3  0  0  0     1.250    369
            2  1  0  0     1.250    370
            2  0  1  0     1.250    371
            1  2  0  0     1.250    372
            1  1  1  0     1.250    373
            1  0  2  0     1.250    374
            0  3  0  0     1.250    375
            0  2  1  0     1.250    376
            0  1  2  0     1.250    377
            0  0  3  0     1.250    378

 C                                    5    6    7    8    9   10   11   12   13   14   15   16
                                  ---------------------------------------------------------------------------
            0  0  0  0  3000.000    379  466  553  640  727  814  901  988 1075 1162 1249 1336
            0  0  0  0   600.000    380  467  554  641  728  815  902  989 1076 1163 1250 1337
            0  0  0  0   150.000    381  468  555  642  729  816  903  990 1077 1164 1251 1338
            0  0  0  0    60.000    382  469  556  643  730  817  904  991 1078 1165 1252 1339
            0  0  0  0    24.000    383  470  557  644  731  818  905  992 1079 1166 1253 1340
            0  0  0  0    11.400    384  471  558  645  732  819  906  993 1080 1167 1254 1341
            0  0  0  0     6.600    385  472  559  646  733  820  907  994 1081 1168 1255 1342
            0  0  0  0     4.850    386  473  560  647  734  821  908  995 1082 1169 1256 1343
            0  0  0  1     5.900    387  474  561  648  735  822  909  996 1083 1170 1257 1344
            0  0  0  1     2.550    388  475  562  649  736  823  910  997 1084 1171 1258 1345
            0  0  0  1     1.650    389  476  563  650  737  824  911  998 1085 1172 1259 1346
            0  0  0  1     1.160    390  477  564  651  738  825  912  999 1086 1173 1260 1347
            1  0  0  0    60.000    391  478  565  652  739  826  913 1000 1087 1174 1261 1348
            0  1  0  0    60.000    392  479  566  653  740  827  914 1001 1088 1175 1262 1349
            0  0  1  0    60.000    393  480  567  654  741  828  915 1002 1089 1176 1263 1350
            1  0  0  0    24.000    394  481  568  655  742  829  916 1003 1090 1177 1264 1351
            0  1  0  0    24.000    395  482  569  656  743  830  917 1004 1091 1178 1265 1352
            0  0  1  0    24.000    396  483  570  657  744  831  918 1005 1092 1179 1266 1353
            1  0  0  0    11.400    397  484  571  658  745  832  919 1006 1093 1180 1267 1354
            0  1  0  0    11.400    398  485  572  659  746  833  920 1007 1094 1181 1268 1355
            0  0  1  0    11.400    399  486  573  660  747  834  921 1008 1095 1182 1269 1356
            1  0  0  0     5.150    400  487  574  661  748  835  922 1009 1096 1183 1270 1357
            0  1  0  0     5.150    401  488  575  662  749  836  923 1010 1097 1184 1271 1358
            0  0  1  0     5.150    402  489  576  663  750  837  924 1011 1098 1185 1272 1359
            1  0  0  0     2.400    403  490  577  664  751  838  925 1012 1099 1186 1273 1360
            0  1  0  0     2.400    404  491  578  665  752  839  926 1013 1100 1187 1274 1361
            0  0  1  0     2.400    405  492  579  666  753  840  927 1014 1101 1188 1275 1362
            1  0  0  0     1.300    406  493  580  667  754  841  928 1015 1102 1189 1276 1363
            0  1  0  0     1.300    407  494  581  668  755  842  929 1016 1103 1190 1277 1364
            0  0  1  0     1.300    408  495  582  669  756  843  930 1017 1104 1191 1278 1365
            1  0  0  0     0.780    409  496  583  670  757  844  931 1018 1105 1192 1279 1366
            0  1  0  0     0.780    410  497  584  671  758  845  932 1019 1106 1193 1280 1367
            0  0  1  0     0.780    411  498  585  672  759  846  933 1020 1107 1194 1281 1368
            2  0  0  0    10.000    412  499  586  673  760  847  934 1021 1108 1195 1282 1369
            1  1  0  0    10.000    413  500  587  674  761  848  935 1022 1109 1196 1283 1370
            1  0  1  0    10.000    414  501  588  675  762  849  936 1023 1110 1197 1284 1371
            0  2  0  0    10.000    415  502  589  676  763  850  937 1024 1111 1198 1285 1372
            0  1  1  0    10.000    416  503  590  677  764  851  938 1025 1112 1199 1286 1373
            0  0  2  0    10.000    417  504  591  678  765  852  939 1026 1113 1200 1287 1374
            2  0  0  0     5.000    418  505  592  679  766  853  940 1027 1114 1201 1288 1375
            1  1  0  0     5.000    419  506  593  680  767  854  941 1028 1115 1202 1289 1376
            1  0  1  0     5.000    420  507  594  681  768  855  942 1029 1116 1203 1290 1377
            0  2  0  0     5.000    421  508  595  682  769  856  943 1030 1117 1204 1291 1378
            0  1  1  0     5.000    422  509  596  683  770  857  944 1031 1118 1205 1292 1379
            0  0  2  0     5.000    423  510  597  684  771  858  945 1032 1119 1206 1293 1380
            2  0  0  0     2.500    424  511  598  685  772  859  946 1033 1120 1207 1294 1381
            1  1  0  0     2.500    425  512  599  686  773  860  947 1034 1121 1208 1295 1382
            1  0  1  0     2.500    426  513  600  687  774  861  948 1035 1122 1209 1296 1383
            0  2  0  0     2.500    427  514  601  688  775  862  949 1036 1123 1210 1297 1384
            0  1  1  0     2.500    428  515  602  689  776  863  950 1037 1124 1211 1298 1385
            0  0  2  0     2.500    429  516  603  690  777  864  951 1038 1125 1212 1299 1386
            2  0  0  0     1.500    430  517  604  691  778  865  952 1039 1126 1213 1300 1387
            1  1  0  0     1.500    431  518  605  692  779  866  953 1040 1127 1214 1301 1388
            1  0  1  0     1.500    432  519  606  693  780  867  954 1041 1128 1215 1302 1389
            0  2  0  0     1.500    433  520  607  694  781  868  955 1042 1129 1216 1303 1390
            0  1  1  0     1.500    434  521  608  695  782  869  956 1043 1130 1217 1304 1391
            0  0  2  0     1.500    435  522  609  696  783  870  957 1044 1131 1218 1305 1392
            3  0  0  0     8.000    436  523  610  697  784  871  958 1045 1132 1219 1306 1393
            2  1  0  0     8.000    437  524  611  698  785  872  959 1046 1133 1220 1307 1394
            2  0  1  0     8.000    438  525  612  699  786  873  960 1047 1134 1221 1308 1395
            1  2  0  0     8.000    439  526  613  700  787  874  961 1048 1135 1222 1309 1396
            1  1  1  0     8.000    440  527  614  701  788  875  962 1049 1136 1223 1310 1397
            1  0  2  0     8.000    441  528  615  702  789  876  963 1050 1137 1224 1311 1398
            0  3  0  0     8.000    442  529  616  703  790  877  964 1051 1138 1225 1312 1399
            0  2  1  0     8.000    443  530  617  704  791  878  965 1052 1139 1226 1313 1400
            0  1  2  0     8.000    444  531  618  705  792  879  966 1053 1140 1227 1314 1401
            0  0  3  0     8.000    445  532  619  706  793  880  967 1054 1141 1228 1315 1402
            3  0  0  0     4.000    446  533  620  707  794  881  968 1055 1142 1229 1316 1403
            2  1  0  0     4.000    447  534  621  708  795  882  969 1056 1143 1230 1317 1404
            2  0  1  0     4.000    448  535  622  709  796  883  970 1057 1144 1231 1318 1405
            1  2  0  0     4.000    449  536  623  710  797  884  971 1058 1145 1232 1319 1406
            1  1  1  0     4.000    450  537  624  711  798  885  972 1059 1146 1233 1320 1407
            1  0  2  0     4.000    451  538  625  712  799  886  973 1060 1147 1234 1321 1408
            0  3  0  0     4.000    452  539  626  713  800  887  974 1061 1148 1235 1322 1409
            0  2  1  0     4.000    453  540  627  714  801  888  975 1062 1149 1236 1323 1410
            0  1  2  0     4.000    454  541  628  715  802  889  976 1063 1150 1237 1324 1411
            0  0  3  0     4.000    455  542  629  716  803  890  977 1064 1151 1238 1325 1412
            3  0  0  0     2.000    456  543  630  717  804  891  978 1065 1152 1239 1326 1413
            2  1  0  0     2.000    457  544  631  718  805  892  979 1066 1153 1240 1327 1414
            2  0  1  0     2.000    458  545  632  719  806  893  980 1067 1154 1241 1328 1415
            1  2  0  0     2.000    459  546  633  720  807  894  981 1068 1155 1242 1329 1416
            1  1  1  0     2.000    460  547  634  721  808  895  982 1069 1156 1243 1330 1417
            1  0  2  0     2.000    461  548  635  722  809  896  983 1070 1157 1244 1331 1418
            0  3  0  0     2.000    462  549  636  723  810  897  984 1071 1158 1245 1332 1419
            0  2  1  0     2.000    463  550  637  724  811  898  985 1072 1159 1246 1333 1420
            0  1  2  0     2.000    464  551  638  725  812  899  986 1073 1160 1247 1334 1421
            0  0  3  0     2.000    465  552  639  726  813  900  987 1074 1161 1248 1335 1422

 H                                   17   18   19   20   21   22   23   24   25   26   27   28   29   30   31
                                     32   33   34   35   36   37   38   39   40   41
                                  ---------------------------------------------------------------------------
            0  0  0  0   500.000   1423 1462 1501 1540 1579 1618 1657 1696 1735 1774 1813 1852 1891 1930 1969
                                   2008 2047 2086 2125 2164 2203 2242 2281 2320 2359
            0  0  0  0   100.000   1424 1463 1502 1541 1580 1619 1658 1697 1736 1775 1814 1853 1892 1931 1970
                                   2009 2048 2087 2126 2165 2204 2243 2282 2321 2360
            0  0  0  0    25.000   1425 1464 1503 1542 1581 1620 1659 1698 1737 1776 1815 1854 1893 1932 1971
                                   2010 2049 2088 2127 2166 2205 2244 2283 2322 2361
            0  0  0  0     7.500   1426 1465 1504 1543 1582 1621 1660 1699 1738 1777 1816 1855 1894 1933 1972
                                   2011 2050 2089 2128 2167 2206 2245 2284 2323 2362
            0  0  0  0     3.300   1427 1466 1505 1544 1583 1622 1661 1700 1739 1778 1817 1856 1895 1934 1973
                                   2012 2051 2090 2129 2168 2207 2246 2285 2324 2363
            0  0  0  0     2.000   1428 1467 1506 1545 1584 1623 1662 1701 1740 1779 1818 1857 1896 1935 1974
                                   2013 2052 2091 2130 2169 2208 2247 2286 2325 2364
            0  0  0  0     1.400   1429 1468 1507 1546 1585 1624 1663 1702 1741 1780 1819 1858 1897 1936 1975
                                   2014 2053 2092 2131 2170 2209 2248 2287 2326 2365
            0  0  0  0     1.000   1430 1469 1508 1547 1586 1625 1664 1703 1742 1781 1820 1859 1898 1937 1976
                                   2015 2054 2093 2132 2171 2210 2249 2288 2327 2366
            0  0  0  0     0.710   1431 1470 1509 1548 1587 1626 1665 1704 1743 1782 1821 1860 1899 1938 1977
                                   2016 2055 2094 2133 2172 2211 2250 2289 2328 2367
            1  0  0  0    10.000   1432 1471 1510 1549 1588 1627 1666 1705 1744 1783 1822 1861 1900 1939 1978
                                   2017 2056 2095 2134 2173 2212 2251 2290 2329 2368
            0  1  0  0    10.000   1433 1472 1511 1550 1589 1628 1667 1706 1745 1784 1823 1862 1901 1940 1979
                                   2018 2057 2096 2135 2174 2213 2252 2291 2330 2369
            0  0  1  0    10.000   1434 1473 1512 1551 1590 1629 1668 1707 1746 1785 1824 1863 1902 1941 1980
                                   2019 2058 2097 2136 2175 2214 2253 2292 2331 2370
            1  0  0  0     4.000   1435 1474 1513 1552 1591 1630 1669 1708 1747 1786 1825 1864 1903 1942 1981
                                   2020 2059 2098 2137 2176 2215 2254 2293 2332 2371
            0  1  0  0     4.000   1436 1475 1514 1553 1592 1631 1670 1709 1748 1787 1826 1865 1904 1943 1982
                                   2021 2060 2099 2138 2177 2216 2255 2294 2333 2372
            0  0  1  0     4.000   1437 1476 1515 1554 1593 1632 1671 1710 1749 1788 1827 1866 1905 1944 1983
                                   2022 2061 2100 2139 2178 2217 2256 2295 2334 2373
            1  0  0  0     2.000   1438 1477 1516 1555 1594 1633 1672 1711 1750 1789 1828 1867 1906 1945 1984
                                   2023 2062 2101 2140 2179 2218 2257 2296 2335 2374
            0  1  0  0     2.000   1439 1478 1517 1556 1595 1634 1673 1712 1751 1790 1829 1868 1907 1946 1985
                                   2024 2063 2102 2141 2180 2219 2258 2297 2336 2375
            0  0  1  0     2.000   1440 1479 1518 1557 1596 1635 1674 1713 1752 1791 1830 1869 1908 1947 1986
                                   2025 2064 2103 2142 2181 2220 2259 2298 2337 2376
            1  0  0  0     1.000   1441 1480 1519 1558 1597 1636 1675 1714 1753 1792 1831 1870 1909 1948 1987
                                   2026 2065 2104 2143 2182 2221 2260 2299 2338 2377
            0  1  0  0     1.000   1442 1481 1520 1559 1598 1637 1676 1715 1754 1793 1832 1871 1910 1949 1988
                                   2027 2066 2105 2144 2183 2222 2261 2300 2339 2378
            0  0  1  0     1.000   1443 1482 1521 1560 1599 1638 1677 1716 1755 1794 1833 1872 1911 1950 1989
                                   2028 2067 2106 2145 2184 2223 2262 2301 2340 2379
            2  0  0  0     5.000   1444 1483 1522 1561 1600 1639 1678 1717 1756 1795 1834 1873 1912 1951 1990
                                   2029 2068 2107 2146 2185 2224 2263 2302 2341 2380
            1  1  0  0     5.000   1445 1484 1523 1562 1601 1640 1679 1718 1757 1796 1835 1874 1913 1952 1991
                                   2030 2069 2108 2147 2186 2225 2264 2303 2342 2381
            1  0  1  0     5.000   1446 1485 1524 1563 1602 1641 1680 1719 1758 1797 1836 1875 1914 1953 1992
                                   2031 2070 2109 2148 2187 2226 2265 2304 2343 2382
            0  2  0  0     5.000   1447 1486 1525 1564 1603 1642 1681 1720 1759 1798 1837 1876 1915 1954 1993
                                   2032 2071 2110 2149 2188 2227 2266 2305 2344 2383
            0  1  1  0     5.000   1448 1487 1526 1565 1604 1643 1682 1721 1760 1799 1838 1877 1916 1955 1994
                                   2033 2072 2111 2150 2189 2228 2267 2306 2345 2384
            0  0  2  0     5.000   1449 1488 1527 1566 1605 1644 1683 1722 1761 1800 1839 1878 1917 1956 1995
                                   2034 2073 2112 2151 2190 2229 2268 2307 2346 2385
            2  0  0  0     2.500   1450 1489 1528 1567 1606 1645 1684 1723 1762 1801 1840 1879 1918 1957 1996
                                   2035 2074 2113 2152 2191 2230 2269 2308 2347 2386
            1  1  0  0     2.500   1451 1490 1529 1568 1607 1646 1685 1724 1763 1802 1841 1880 1919 1958 1997
                                   2036 2075 2114 2153 2192 2231 2270 2309 2348 2387
            1  0  1  0     2.500   1452 1491 1530 1569 1608 1647 1686 1725 1764 1803 1842 1881 1920 1959 1998
                                   2037 2076 2115 2154 2193 2232 2271 2310 2349 2388
            0  2  0  0     2.500   1453 1492 1531 1570 1609 1648 1687 1726 1765 1804 1843 1882 1921 1960 1999
                                   2038 2077 2116 2155 2194 2233 2272 2311 2350 2389
            0  1  1  0     2.500   1454 1493 1532 1571 1610 1649 1688 1727 1766 1805 1844 1883 1922 1961 2000
                                   2039 2078 2117 2156 2195 2234 2273 2312 2351 2390
            0  0  2  0     2.500   1455 1494 1533 1572 1611 1650 1689 1728 1767 1806 1845 1884 1923 1962 2001
                                   2040 2079 2118 2157 2196 2235 2274 2313 2352 2391
            2  0  0  0     1.500   1456 1495 1534 1573 1612 1651 1690 1729 1768 1807 1846 1885 1924 1963 2002
                                   2041 2080 2119 2158 2197 2236 2275 2314 2353 2392
            1  1  0  0     1.500   1457 1496 1535 1574 1613 1652 1691 1730 1769 1808 1847 1886 1925 1964 2003
                                   2042 2081 2120 2159 2198 2237 2276 2315 2354 2393
            1  0  1  0     1.500   1458 1497 1536 1575 1614 1653 1692 1731 1770 1809 1848 1887 1926 1965 2004
                                   2043 2082 2121 2160 2199 2238 2277 2316 2355 2394
            0  2  0  0     1.500   1459 1498 1537 1576 1615 1654 1693 1732 1771 1810 1849 1888 1927 1966 2005
                                   2044 2083 2122 2161 2200 2239 2278 2317 2356 2395
            0  1  1  0     1.500   1460 1499 1538 1577 1616 1655 1694 1733 1772 1811 1850 1889 1928 1967 2006
                                   2045 2084 2123 2162 2201 2240 2279 2318 2357 2396
            0  0  2  0     1.500   1461 1500 1539 1578 1617 1656 1695 1734 1773 1812 1851 1890 1929 1968 2007
                                   2046 2085 2124 2163 2202 2241 2280 2319 2358 2397

 Total number of charge fitting functions (nprimf)      5576
 Total number of Cartesian basis functions (naos)       2397
 Total number of Cartesian core functions  (ncos)          0

1
 ***************************************************************************************************



                                              ***********************
                                              *  T E C H N I C A L  *
                                              ***********************
  



 =============================================================
 P A R A L L E L I Z A T I O N  and  V E C T O R I Z A T I O N
 =============================================================
  
 Nr of parallel processes:                                4
 Maximum vector length in NumInt loops:                 128



 =====================
 S C F   U P D A T E S
 =====================
  
 Max. nr. of cycles:                               300
 Convergence criterion:                              0.0000010000
   secondary criterion:                              0.0010000000

 Mix parameter (when DIIS does not apply):           0.2000000000
 Mixed ADIIS+SDIIS will be used                  
    Max number of expansion vectors:                10
    Pure ADIIS when Max([F,P]) is above              0.1000000000
    Pure SDIIS when Max([F,P]) is below              0.0010000000
 Automatic ElectronSmearing (in case of problematic SCF convergence) disabled



 =================
 P R E C I S I O N  ***  (General: NumInt, NeglectFunctionTails, ...)  ***
 =================
  

 NumInt:           Target precision:                 6.0000000000
 -------           Initial precision:                6.0000000000
                   Min. precision (optimization):    6.0000000000

 Neglect Functions:          Basis functions:        0.1000000000E-07
 ------------------          Fit functions:          0.1000000000E-07



 ===========================
 L I N E A R   S C A L I N G
 ===========================
  

 Cut-off radii density fit:                        0.1000000000E-09
 Overlap cut-off criterion AO matrix elements:     0.1000000000E-07
 Cut-offs for Coulomb potential and fitted density:0.1000000000E-09
 Cut-off criterion for Coulomb multipole terms:    0.1000000000E-09
 Progressive Convergence parameter:                 0.000000000    
1
 ***************************************************************************************************



                                            ***************************
                                            *  C O M P U T A T I O N  *
                                            ***************************
  

 Number of elements of the density matrix on this node (used, total):    716977   2874003

 The calculation MAY be unreliable as a result of near linear dependency in the basis.
 Tested is the smallest eigenvalue of the overlap matrix of the basis functions:    0.36887E-05
 Experience shows that such a small value may result in loss of accuracy. Check the
 results of your calculation. If the SCF fit error and the orbital energies look fine,
 your results are reliable. If not, you may consider using the key DEPENDENCY in INPUT.



 ===========================================
 Numerical Integration : Fuzzy Cells (Becke)
 ===========================================
  
 Becke grid quality: GOOD           
  
 Lebedev angular grid order:             min:  11 max:  31
 Nr. of radial points:                   min: 167 max: 331

 Total nr. of points:    1837438
 Nr. of blocks:            14355
 Block length:               128
 Nr. of dummy points:          2


 Test of Precision of the Numerical Integration Grid
 ===================================================

 Integral of the Total Core Density:                   0.00000000000000


 -------------------------------------------
  COSMO surface
  Area             =          977.382
  Volume           =         2232.073
  Number of Points =         2304
 -------------------------------------------



 ========================
 Density Fitting (zlmFit)
 ========================
  
 ZlmFit Fit Quality: GOOD           
  
 Max L-expansion:                        min:   8 max:   9
 Nr. of radial interpolation points:     min: 270 max: 492



 =====
 S C F  ***  ScaSCF  ***
 =====
  
 Initial density matrix is calculated as sum of fragments

 CYCLE    1
 SCF Error: norm([F,P])=     10.473860274184, max([F,P])=      1.051261968836
 orbitals (Q,E):
 ---------------
 A :59...78          ( 2.00    -0.4959)  ( 2.00    -0.4915)  ( 2.00    -0.4893)  ( 2.00    -0.4546)
                     ( 2.00    -0.4492)  ( 2.00    -0.4451)  ( 2.00    -0.4367)  ( 2.00    -0.4264)
                     ( 2.00    -0.3985)  ( 2.00    -0.3086)  ( 0.00    -0.0978)  ( 0.00    -0.0859)
                     ( 0.00    -0.0791)  ( 0.00    -0.0766)  ( 0.00    -0.0727)  ( 0.00    -0.0514)
                     ( 0.00    -0.0472)  ( 0.00    -0.0457)  ( 0.00    -0.0421)  ( 0.00    -0.0389)

 CYCLE    2
   MIX coefficients:  0.8000  0.2000
 SCF Error: norm([F,P])=      1.737727394531, max([F,P])=      0.194910068268
 orbitals (Q,E):
 ---------------
 A :59...69          ( 2.00    -0.4263)  ( 2.00    -0.4159)  ( 2.00    -0.4137)  ( 2.00    -0.3930)
                     ( 2.00    -0.3891)  ( 2.00    -0.3835)  ( 2.00    -0.3767)  ( 2.00    -0.3623)
                     ( 2.00    -0.3336)  ( 2.00    -0.2821)  ( 0.00    -0.0714)

 CYCLE    3
  SDIIS (wt  0.000): -1.0425  2.0425
 A-DIIS (wt  1.000):  0.0000  1.0000
  DIIS coefficients:  0.0000  1.0000
 SCF Error: norm([F,P])=      0.931565158310, max([F,P])=      0.100526041278
 orbitals (Q,E):
 ---------------
 A :59...69          ( 2.00    -0.2356)  ( 2.00    -0.2215)  ( 2.00    -0.2166)  ( 2.00    -0.2121)
                     ( 2.00    -0.1979)  ( 2.00    -0.1875)  ( 2.00    -0.1832)  ( 2.00    -0.1723)
                     ( 2.00    -0.1641)  ( 2.00    -0.1476)  ( 0.00     0.0018)

 CYCLE    4
  SDIIS (wt  0.000):  0.1242  0.4339  0.4420
 A-DIIS (wt  1.000):  0.0000  0.6669  0.3331
  DIIS coefficients:  0.0000  0.6669  0.3331
 SCF Error: norm([F,P])=      1.387341567324, max([F,P])=      0.166975314237
 orbitals (Q,E):
 ---------------
 A :59...69          ( 2.00    -0.2978)  ( 2.00    -0.2870)  ( 2.00    -0.2812)  ( 2.00    -0.2771)
                     ( 2.00    -0.2729)  ( 2.00    -0.2636)  ( 2.00    -0.2594)  ( 2.00    -0.2472)
                     ( 2.00    -0.2234)  ( 2.00    -0.2034)  ( 0.00    -0.0089)

 CYCLE    5
  SDIIS (wt  0.763):  0.0728  0.1706  0.1307  0.6259
 A-DIIS (wt  0.237):  0.0000  0.0000  0.0000  1.0000
  DIIS coefficients:  0.0555  0.1301  0.0997  0.7148
 SCF Error: norm([F,P])=      0.220214731654, max([F,P])=      0.024505774553
 orbitals (Q,E):
 ---------------
 A :59...69          ( 2.00    -0.3108)  ( 2.00    -0.2944)  ( 2.00    -0.2896)  ( 2.00    -0.2880)
                     ( 2.00    -0.2836)  ( 2.00    -0.2726)  ( 2.00    -0.2688)  ( 2.00    -0.2526)
                     ( 2.00    -0.2271)  ( 2.00    -0.2078)  ( 0.00    -0.0128)

 CYCLE    6
  SDIIS (wt  0.770):  0.0181  0.0473  0.0161  0.4647  0.4537
 A-DIIS (wt  0.230):  0.0000  0.0000  0.0000  0.2862  0.7138
  DIIS coefficients:  0.0140  0.0365  0.0124  0.4237  0.5135
 SCF Error: norm([F,P])=      0.147074149302, max([F,P])=      0.023731906045
 orbitals (Q,E):
 ---------------
 A :59...69          ( 2.00    -0.3098)  ( 2.00    -0.2950)  ( 2.00    -0.2901)  ( 2.00    -0.2863)
                     ( 2.00    -0.2827)  ( 2.00    -0.2732)  ( 2.00    -0.2690)  ( 2.00    -0.2559)
                     ( 2.00    -0.2313)  ( 2.00    -0.2112)  ( 0.00    -0.0136)

 CYCLE    7
  SDIIS (wt  0.864): -0.0093  0.0301 -0.0038  0.2232  0.3373  0.4226
 A-DIIS (wt  0.136):  0.0000  0.0000  0.0000  0.0000  0.0641  0.9359
  DIIS coefficients: -0.0080  0.0260 -0.0033  0.1929  0.3001  0.4924
 SCF Error: norm([F,P])=      0.054291529577, max([F,P])=      0.014462845687
 orbitals (Q,E):
 ---------------
 A :59...69          ( 2.00    -0.3086)  ( 2.00    -0.2945)  ( 2.00    -0.2893)  ( 2.00    -0.2862)
                     ( 2.00    -0.2824)  ( 2.00    -0.2723)  ( 2.00    -0.2683)  ( 2.00    -0.2536)
                     ( 2.00    -0.2290)  ( 2.00    -0.2086)  ( 0.00    -0.0126)

 CYCLE    8
  SDIIS (wt  0.945): -0.0017  0.0017 -0.0028  0.0588  0.1218  0.3537  0.4685
 A-DIIS (wt  0.055):  0.0000  0.0000  0.0000  0.0000  0.0000  0.2308  0.7692
  DIIS coefficients: -0.0016  0.0016 -0.0027  0.0556  0.1151  0.3470  0.4850
 SCF Error: norm([F,P])=      0.025122455383, max([F,P])=      0.006416115058
 orbitals (Q,E):
 ---------------
 A :59...69          ( 2.00    -0.3090)  ( 2.00    -0.2941)  ( 2.00    -0.2892)  ( 2.00    -0.2860)
                     ( 2.00    -0.2824)  ( 2.00    -0.2723)  ( 2.00    -0.2684)  ( 2.00    -0.2541)
                     ( 2.00    -0.2293)  ( 2.00    -0.2090)  ( 0.00    -0.0127)

 CYCLE    9
  SDIIS (wt  1.000):  0.0016 -0.0039 -0.0007  0.0140  0.0377  0.1609  0.2889  0.5014
  DIIS coefficients:  0.0016 -0.0039 -0.0007  0.0140  0.0377  0.1609  0.2889  0.5014
 SCF Error: norm([F,P])=      0.004795422355, max([F,P])=      0.000836977802
 orbitals (Q,E):
 ---------------
 A :59...69          ( 2.00    -0.3090)  ( 2.00    -0.2943)  ( 2.00    -0.2894)  ( 2.00    -0.2861)
                     ( 2.00    -0.2824)  ( 2.00    -0.2724)  ( 2.00    -0.2684)  ( 2.00    -0.2541)
                     ( 2.00    -0.2296)  ( 2.00    -0.2093)  ( 0.00    -0.0128)

 CYCLE   10
  SDIIS (wt  1.000):  0.0004 -0.0013 -0.0001 -0.0032 -0.0029  0.0154  0.0648  0.2962  0.6308
  DIIS coefficients:  0.0004 -0.0013 -0.0001 -0.0032 -0.0029  0.0154  0.0648  0.2962  0.6308
 SCF Error: norm([F,P])=      0.001626256078, max([F,P])=      0.000253599416
 orbitals (Q,E):
 ---------------
 A :59...69          ( 2.00    -0.3090)  ( 2.00    -0.2943)  ( 2.00    -0.2894)  ( 2.00    -0.2861)
                     ( 2.00    -0.2824)  ( 2.00    -0.2723)  ( 2.00    -0.2684)  ( 2.00    -0.2541)
                     ( 2.00    -0.2295)  ( 2.00    -0.2092)  ( 0.00    -0.0128)

 CYCLE   11
  SDIIS (wt  1.000):  0.0002 -0.0006  0.0000 -0.0022 -0.0030 -0.0007  0.0161  0.1205  0.2971  0.5725
  DIIS coefficients:  0.0002 -0.0006  0.0000 -0.0022 -0.0030 -0.0007  0.0161  0.1205  0.2971  0.5725
 SCF Error: norm([F,P])=      0.000338190124, max([F,P])=      0.000051913846
 orbitals (Q,E):
 ---------------
 A :59...69          ( 2.00    -0.3090)  ( 2.00    -0.2943)  ( 2.00    -0.2893)  ( 2.00    -0.2861)
                     ( 2.00    -0.2824)  ( 2.00    -0.2723)  ( 2.00    -0.2684)  ( 2.00    -0.2541)
                     ( 2.00    -0.2295)  ( 2.00    -0.2092)  ( 0.00    -0.0127)

 CYCLE   12
  SDIIS (wt  1.000): -0.0001 -0.0000 -0.0007 -0.0010 -0.0014  0.0023  0.0336  0.0857  0.2704  0.6112
  DIIS coefficients: -0.0001 -0.0000 -0.0007 -0.0010 -0.0014  0.0023  0.0336  0.0857  0.2704  0.6112
 SCF Error: norm([F,P])=      0.000099581628, max([F,P])=      0.000015994245
 orbitals (Q,E):
 ---------------
 A :59...69          ( 2.00    -0.3090)  ( 2.00    -0.2943)  ( 2.00    -0.2893)  ( 2.00    -0.2861)
                     ( 2.00    -0.2824)  ( 2.00    -0.2723)  ( 2.00    -0.2684)  ( 2.00    -0.2541)
                     ( 2.00    -0.2295)  ( 2.00    -0.2092)  ( 0.00    -0.0127)

 CYCLE   13
  SDIIS (wt  1.000):  0.0000 -0.0001 -0.0002 -0.0008 -0.0009  0.0048  0.0128  0.1019  0.4169  0.4656
  DIIS coefficients:  0.0000 -0.0001 -0.0002 -0.0008 -0.0009  0.0048  0.0128  0.1019  0.4169  0.4656
 SCF Error: norm([F,P])=      0.000060551326, max([F,P])=      0.000012802659
 orbitals (Q,E):
 ---------------
 A :59...69          ( 2.00    -0.3090)  ( 2.00    -0.2943)  ( 2.00    -0.2893)  ( 2.00    -0.2861)
                     ( 2.00    -0.2824)  ( 2.00    -0.2723)  ( 2.00    -0.2684)  ( 2.00    -0.2541)
                     ( 2.00    -0.2295)  ( 2.00    -0.2092)  ( 0.00    -0.0127)

 CYCLE   14
  SDIIS (wt  1.000):  0.0000  0.0000 -0.0002 -0.0005 -0.0010 -0.0022  0.0223  0.1536  0.2886  0.5394
  DIIS coefficients:  0.0000  0.0000 -0.0002 -0.0005 -0.0010 -0.0022  0.0223  0.1536  0.2886  0.5394
 SCF Error: norm([F,P])=      0.000020518915, max([F,P])=      0.000003880670
 orbitals (Q,E):
 ---------------
 A :59...69          ( 2.00    -0.3090)  ( 2.00    -0.2943)  ( 2.00    -0.2893)  ( 2.00    -0.2861)
                     ( 2.00    -0.2824)  ( 2.00    -0.2723)  ( 2.00    -0.2684)  ( 2.00    -0.2541)
                     ( 2.00    -0.2295)  ( 2.00    -0.2092)  ( 0.00    -0.0127)

 CYCLE   15
  SDIIS (wt  1.000):  0.0000 -0.0000 -0.0001 -0.0006 -0.0011  0.0032  0.0350  0.0829  0.2123  0.6685
  DIIS coefficients:  0.0000 -0.0000 -0.0001 -0.0006 -0.0011  0.0032  0.0350  0.0829  0.2123  0.6685
 SCF Error: norm([F,P])=      0.000003669108, max([F,P])=      0.000000663126
 orbitals (Q,E):
 ---------------
 A :59...69          ( 2.00    -0.3090)  ( 2.00    -0.2943)  ( 2.00    -0.2893)  ( 2.00    -0.2861)
                     ( 2.00    -0.2824)  ( 2.00    -0.2723)  ( 2.00    -0.2684)  ( 2.00    -0.2541)
                     ( 2.00    -0.2295)  ( 2.00    -0.2092)  ( 0.00    -0.0127)

 SCF CONVERGED
 cosmo_calcen: 0.5 (esolb+esolc) (Hartrees) =   -0.005851

 Solvation energy (screening term,uncorrected) =     -3.671569 kcal/mol

 Solvation energy (dispersion and cavitation terms) =      1.465568 kcal/mol
 Solvation Energy Contributions (Hartrees)
          esola   esolb+esolc
     0.00585102   -0.01170203
 esol last cycle   -0.00585102

 CYCLE   16
1
 ***************************************************************************************************



                                                *******************
                                                *  R E S U L T S  *
                                                *******************
  
 *** Using FIT density in Focky
  SDIIS (wt  1.000): -0.0000 -0.0001 -0.0004 -0.0007 -0.0016  0.0016  0.0166  0.0693  0.3865  0.5290
  DIIS coefficients: -0.0000 -0.0001 -0.0004 -0.0007 -0.0016  0.0016  0.0166  0.0693  0.3865  0.5290
 SCF Error: norm([F,P])=      0.000001906658, max([F,P])=      0.000000359948

 Scaled ZORA Orbital Energies, per Irrep and Spin:
 =================================================
                        Occup              E (au)              E (eV)       Diff (eV) with prev. cycle
                        -----      --------------------        ------       --------------------------
 A
              59        2.000     -0.30899298400781E+00        -8.408               1.88E-06
              60        2.000     -0.29426002225628E+00        -8.007               1.54E-06
              61        2.000     -0.28933688151632E+00        -7.873               2.17E-06
              62        2.000     -0.28608133764123E+00        -7.785               1.98E-06
              63        2.000     -0.28236465128302E+00        -7.684               2.04E-06
              64        2.000     -0.27233069318481E+00        -7.410               1.98E-06
              65        2.000     -0.26836745196536E+00        -7.303               2.45E-06
              66        2.000     -0.25409586225488E+00        -6.914               1.81E-06
              67        2.000     -0.22951972859266E+00        -6.246               1.32E-06
              68        2.000     -0.20920152325414E+00        -5.693              -5.27E-07
              69        0.000     -0.12745847331702E-01        -0.347
              70        0.000     -0.12565126453398E-01        -0.342
              71        0.000     -0.71023961781201E-02        -0.193
              72        0.000      0.60034079807300E-02         0.163
              73        0.000      0.77527384127590E-02         0.211
              74        0.000      0.13986133004065E-01         0.381
              75        0.000      0.16458608967963E-01         0.448
              76        0.000      0.19259733077359E-01         0.524
              77        0.000      0.22824320836720E-01         0.621
              78        0.000      0.29592791009647E-01         0.805
  
 HOMO :       68 A                -0.20920152325414E+00
 LUMO :       69 A                -0.12745847331702E-01
  
 cosmo_calcen: 0.5 (esolb+esolc) (Hartrees) =   -0.005851

 Solvation energy (screening term,uncorrected) =     -3.671570 kcal/mol

 Solvation energy (dispersion and cavitation terms) =      1.465568 kcal/mol
 Solvation Energy Contributions (Hartrees)
          esola   esolb+esolc
     0.00585102   -0.01170204
 esol last cycle   -0.00585102


 All Electron Calculation, thus no Orbital Energies of the Core Orbitals are calculated


 Fit test: (difference of exact and fit density, squared integrated, result summed over spins)
         Sum-of-Fragments:                             0.00000000003700
         Orthogonalized Fragments:                     0.00004995591790
         SCF:                                          0.00011831367094



 ==========================
 Electron Density at Nuclei
 ==========================
  
 The electron density is calculated at points on a small sphere around the center of a nucleus.
 The printed electron density is the average electron density on these points.
 The radius of the sphere is the printed approximate finite nuclear radius.
 Note: ZORA-4 density is used, which includes small component density

         Atom        Nuclear Radius (Angstrom)             Electron Density (a.u.)
         ----        -------------------------             -----------------------
     1)   O                 0.0000345546                              319.08387
     2)   P                 0.0000412627                             2379.34340
     3)   O                 0.0000345546                              319.14410
     4)   O                 0.0000345546                              319.10354
     5)   C                 0.0000320678                              128.14319
     6)   C                 0.0000320678                              128.14454
     7)   C                 0.0000320678                              128.11085
     8)   C                 0.0000320678                              128.10617
     9)   C                 0.0000320678                              128.11481
    10)   C                 0.0000320678                              128.10682
    11)   H                 0.0000181514                                0.48061
    12)   H                 0.0000181514                                0.48194
    13)   H                 0.0000181514                                0.48080
    14)   H                 0.0000181514                                0.48205
    15)   H                 0.0000181514                                0.47885
    16)   H                 0.0000181514                                0.48044
    17)   H                 0.0000181514                                0.48045
    18)   H                 0.0000181514                                0.48117
    19)   H                 0.0000181514                                0.48034
    20)   H                 0.0000181514                                0.47875
    21)   H                 0.0000181514                                0.48048
    22)   H                 0.0000181514                                0.48206
    23)   C                 0.0000320678                              128.14186
    24)   C                 0.0000320678                              128.05636
    25)   H                 0.0000181514                                0.48073
    26)   H                 0.0000181514                                0.48112
    27)   C                 0.0000320678                              128.10108
    28)   C                 0.0000320678                              128.10912
    29)   H                 0.0000181514                                0.48044
    30)   C                 0.0000320678                              128.10101
    31)   H                 0.0000181514                                0.48974
    32)   C                 0.0000320678                              128.10689
    33)   H                 0.0000181514                                0.48164
    34)   H                 0.0000181514                                0.48290
    35)   H                 0.0000181514                                0.48125
    36)   H                 0.0000181514                                0.48300
    37)   H                 0.0000181514                                0.48242
    38)   H                 0.0000181514                                0.48140
    39)   H                 0.0000181514                                0.48134
    40)   H                 0.0000181514                                0.48095
    41)   H                 0.0000181514                                0.48329



 =======================================
 M U L L I K E N   P O P U L A T I O N S
 =======================================
  
 The survey below gives for each atom:
 a) the total charge (Z minus electrons)
 b) the net spin polarization (nr of electrons spin-A minus spin-B)
 c) for each spin the atomic electron valence density (integrated) per L-value.

 Atom              Charge    Spin density          S         P         D         F
 ----              ------    ------------       ------    ------    ------    ------
 1 O              -0.6835                       4.0800    4.4793    0.1047    0.0195
 2 P               1.6182                       5.2097    7.4545    0.6129    0.1047
 3 O              -0.8327                       3.9306    4.7792    0.1057    0.0171
 4 O              -0.7504                       3.8568    4.7718    0.1046    0.0172
 5 C               0.7913                       2.8108    1.8974    0.4300    0.0706
 6 C               0.8255                       2.7892    1.8815    0.4331    0.0707
 7 C              -0.6656                       2.5335    3.9164    0.1956    0.0202
 8 C              -0.8021                       2.4366    4.1530    0.1917    0.0209
 9 C              -0.8240                       2.4936    4.1084    0.2014    0.0206
 10 C             -0.8200                       2.4349    4.1732    0.1912    0.0207
 11 H              0.0932                       0.6603    0.2169    0.0295    0.0000
 12 H              0.2135                       0.5031    0.2504    0.0330    0.0000
 13 H              0.1481                       0.6007    0.2223    0.0289    0.0000
 14 H              0.1773                       0.5484    0.2441    0.0302    0.0000
 15 H              0.1797                       0.5533    0.2367    0.0303    0.0000
 16 H              0.1461                       0.6022    0.2228    0.0289    0.0000
 17 H              0.1997                       0.5420    0.2292    0.0290    0.0000
 18 H              0.2133                       0.5197    0.2364    0.0307    0.0000
 19 H              0.1437                       0.6078    0.2204    0.0282    0.0000
 20 H              0.1909                       0.5422    0.2364    0.0305    0.0000
 21 H              0.1508                       0.5977    0.2227    0.0288    0.0000
 22 H              0.1778                       0.5466    0.2450    0.0306    0.0000
 23 C              0.5234                       2.6384    2.3540    0.4258    0.0585
 24 C              0.9794                       2.8075    1.7964    0.3647    0.0520
 25 H              0.2253                       0.5448    0.2040    0.0258    0.0000
 26 H              0.2661                       0.4707    0.2347    0.0284    0.0000
 27 C             -0.7463                       2.4323    4.0915    0.2026    0.0198
 28 C             -0.6968                       2.4898    3.9920    0.1944    0.0206
 29 H              0.1862                       0.5612    0.2247    0.0279    0.0000
 30 C             -0.9671                       2.5317    4.2190    0.1975    0.0188
 31 H             -0.1654                       0.7924    0.3324    0.0405    0.0000
 32 C             -0.8653                       2.5105    4.1265    0.2076    0.0207
 33 H              0.0673                       0.7046    0.2009    0.0271    0.0000
 34 H              0.1287                       0.5825    0.2563    0.0325    0.0000
 35 H              0.1775                       0.5590    0.2337    0.0298    0.0000
 36 H              0.1469                       0.5792    0.2437    0.0302    0.0000
 37 H              0.1276                       0.5913    0.2497    0.0313    0.0000
 38 H              0.1549                       0.5862    0.2293    0.0296    0.0000
 39 H              0.1921                       0.5660    0.2144    0.0274    0.0000
 40 H              0.1893                       0.5478    0.2341    0.0288    0.0000
 41 H              0.1852                       0.5442    0.2415    0.0290    0.0000

 Populations of individual BAS functions
 ----------------------------------------
 1 O            0.0000  0.0000  0.0000 -0.0001  0.0018 -0.0019  1.3451  0.5156  0.0938  0.6378
                1.0050  0.2414  0.2415  0.0000  0.0000  0.0000 -0.0000 -0.0000 -0.0000  0.0004
                0.0005  0.0005  0.0404  0.0514  0.0490  0.4164  0.5606  0.5414  1.0772  0.9233
                0.9204 -0.4302  0.2075  0.1204  0.0001  0.0000  0.0000 -0.0001  0.0000 -0.0000
               -0.0016 -0.0000 -0.0001  0.0010 -0.0000  0.0004  0.0255  0.0023  0.0073 -0.0097
                0.0026 -0.0048  0.0070  0.0253  0.0249  0.0082  0.0062  0.0102 -0.0006 -0.0004
               -0.0005  0.0003 -0.0000  0.0002  0.0003  0.0002  0.0001  0.0003  0.0059  0.0031
                0.0048 -0.0033  0.0001 -0.0022 -0.0025 -0.0013 -0.0004 -0.0033 -0.0013  0.0067
               -0.0009  0.0020  0.0016  0.0060 -0.0040 -0.0012  0.0024  0.0075
 3 O            0.0000  0.0000  0.0000 -0.0001  0.0018 -0.0022  1.3503  0.5121  0.0920  0.6515
                0.9848  0.2499  0.0905  0.0000  0.0000  0.0000 -0.0000 -0.0000 -0.0000  0.0005
                0.0006  0.0005  0.0432  0.0466  0.0460  0.4931  0.5410  0.5334  0.8637  0.8679
                0.8210  0.0814  0.1599  0.2805  0.0000  0.0000  0.0000 -0.0000  0.0000 -0.0000
               -0.0004 -0.0001 -0.0001 -0.0000 -0.0000  0.0004  0.0070  0.0057  0.0047 -0.0006
                0.0037 -0.0025  0.0170  0.0187  0.0112  0.0043  0.0149  0.0218 -0.0002 -0.0002
               -0.0002  0.0001 -0.0000  0.0001  0.0004  0.0001 -0.0001  0.0001  0.0018  0.0025
                0.0018 -0.0013  0.0002 -0.0003 -0.0037 -0.0005  0.0013 -0.0011 -0.0011 -0.0035
               -0.0013  0.0068  0.0015  0.0002  0.0121  0.0040 -0.0034  0.0010
 4 O            0.0000  0.0000  0.0000 -0.0001  0.0018 -0.0021  1.3487  0.5122  0.0938  0.6417
                1.0095  0.2115  0.0398  0.0000  0.0000  0.0000 -0.0000 -0.0000 -0.0000  0.0005
                0.0006  0.0006  0.0392  0.0465  0.0501  0.4590  0.5440  0.5672  0.7995  0.8442
                0.9162  0.1154  0.2074  0.1815  0.0001  0.0000  0.0000 -0.0000  0.0000 -0.0001
               -0.0009 -0.0001 -0.0001  0.0001 -0.0000  0.0007  0.0138  0.0065  0.0048 -0.0021
                0.0027 -0.0077  0.0205  0.0219  0.0168  0.0073  0.0121  0.0081 -0.0003 -0.0004
               -0.0003  0.0001 -0.0000  0.0002  0.0004  0.0001  0.0001  0.0001  0.0029  0.0042
                0.0024 -0.0009  0.0001 -0.0018 -0.0034 -0.0013 -0.0006 -0.0008  0.0074 -0.0025
                0.0066  0.0027  0.0029 -0.0037  0.0112  0.0080 -0.0048 -0.0113
 2 P            0.0000  0.0000  0.0000  0.0002  0.0017  0.6503  1.3473 -0.0660  1.1524  0.9954
               -0.6436  1.1152  0.9608 -0.3040  0.0000  0.0000  0.0000  0.0000  0.0000  0.0000
                0.0038  0.0037  0.0039  0.1421  0.1419  0.1422  1.1058  1.1035  1.1120  0.7818
                0.7818  0.7784 -0.1617 -0.1505 -0.1683  0.6203  0.5790  0.7056 -0.0081 -0.0662
                0.1757 -0.0893 -0.1090  0.0263  0.0000 -0.0000 -0.0000  0.0000 -0.0000 -0.0000
                0.0001  0.0002  0.0002 -0.0000  0.0001  0.0001 -0.0007  0.0004  0.0002 -0.0000
               -0.0002  0.0011  0.0405  0.1080  0.0737  0.0431  0.0682  0.0166  0.0680  0.0318
                0.0690  0.0118  0.0070  0.0738  0.0000  0.0000 -0.0000 -0.0000  0.0000  0.0000
               -0.0000 -0.0000  0.0000  0.0000  0.0000 -0.0005 -0.0003 -0.0001 -0.0002 -0.0001
                0.0005  0.0000 -0.0002  0.0001 -0.0010  0.0151  0.0104  0.0129  0.0118  0.0032
               -0.0051  0.0073  0.0037 -0.0077  0.0182  0.0013  0.0084 -0.0004  0.0054  0.0081
                0.0062  0.0027  0.0004  0.0045
 5 C            0.0000 -0.0000  0.0000 -0.0001  0.0016  0.0150  0.9874  0.6419  0.2697  0.2081
                1.4151 -0.7280  0.0000  0.0000  0.0000 -0.0000 -0.0000 -0.0000  0.0000  0.0001
                0.0001  0.0142  0.0151  0.0152  0.1428  0.1819  0.1697  1.2689  1.3416  1.3788
               -0.8432 -0.9004 -0.8875  0.0000  0.0000  0.0000 -0.0000  0.0000 -0.0000  0.0000
               -0.0002 -0.0001 -0.0001 -0.0001 -0.0001 -0.0037  0.0073  0.0018  0.0019  0.0027
                0.0029  0.0664  0.0689  0.0942  0.0464  0.0878  0.0540  0.0000 -0.0001 -0.0000
               -0.0000 -0.0000 -0.0000  0.0000  0.0000  0.0000  0.0000 -0.0005  0.0007 -0.0000
                0.0004  0.0001 -0.0001 -0.0005  0.0000 -0.0003 -0.0001  0.0047  0.0059  0.0104
                0.0078  0.0099  0.0116  0.0007  0.0084  0.0101  0.0015
 6 C            0.0000 -0.0000  0.0000 -0.0001  0.0016  0.0151  0.9888  0.6356  0.2737  0.2114
                1.4191 -0.7560  0.0000  0.0000  0.0000 -0.0000 -0.0000 -0.0000  0.0001  0.0001
                0.0001  0.0138  0.0153  0.0151  0.1382  0.1831  0.1773  1.2478  1.3704  1.3529
               -0.7827 -0.9394 -0.9105  0.0000  0.0000  0.0000 -0.0000  0.0000 -0.0000 -0.0001
               -0.0001 -0.0002 -0.0001 -0.0002  0.0001 -0.0026  0.0037  0.0033  0.0027  0.0054
                0.0004  0.0735  0.0815  0.0992  0.0454  0.0759  0.0453  0.0000 -0.0000 -0.0001
               -0.0000 -0.0000  0.0000  0.0000  0.0000 -0.0000  0.0001 -0.0005  0.0003  0.0006
                0.0002  0.0001  0.0001 -0.0005 -0.0000  0.0001 -0.0007  0.0089  0.0089  0.0103
                0.0070  0.0088  0.0102  0.0017  0.0088  0.0071 -0.0008
 7 C            0.0000 -0.0000  0.0000 -0.0001  0.0017  0.0127  0.8756  0.8632  0.1701  0.1822
                1.4487 -1.0207  0.0000  0.0000  0.0000 -0.0000 -0.0000 -0.0000  0.0001  0.0001
[...]
 H  ( 40):    26.752
 H  ( 41):    26.752

 Performing the following coupling computations:
 Nucleus   4 (P ) perturbing 
          11 (C ) responding
          12 (C ) responding
          29 (H ) responding
          30 (H ) responding
          31 (H ) responding
          15 (C ) responding
          32 (H ) responding



 =============================================
 Computation for perturbing ADF-GUI atom: P(2)
 =============================================
  
 
 *** running FC calculation
     computing
     ... matrix elements for perturbing nucleus   4
     ... matrix elements for responding nucleus  11
     ... matrix elements for responding nucleus  12
     ... matrix elements for responding nucleus  29
     ... matrix elements for responding nucleus  30
     ... matrix elements for responding nucleus  31
     ... matrix elements for responding nucleus  15
     ... matrix elements for responding nucleus  32
     ... ZSO / Fermi contact coupling constant(s) 



 ===================================
 CPKS routine for spin-spin coupling  ***  Version 05/08 (scalar)  ***
 ===================================
  
 Using new AO based algorithms for CPKS
    running CPKS for TRIPLET Operator
    using first order VWN potential for LDA perturbation
    Will use LDA kernel
 
 iter.  1 V(1) measure  0.5343132937295E+00
 iter.  2 V(1) measure  0.8369012210792E+00
        2        delta  0.3025879273497E+00
 iter.  3 V(1) measure  0.8386148608350E+00
        3        delta  0.1713639755808E-02
 iter.  4 V(1) measure  0.8386281778803E+00
        4        delta  0.1331704524254E-04
 *** convergence reached



                                                *******************
                                                *  R E S U L T S  *
                                                *******************
  



 ========================================
  Nucleus 4 (P) perturbing nucleus 11 (C)
 ========================================
  
 Internal CPL numbering of atoms:  P(4) perturbing  C(11)
 ADF-GUI atoms:  P(2) perturbing  C(23)
  
 ---------------------------------
   Cartesian Axis Representation  
 ---------------------------------

 ----- k (10^19 kg m-2 s-2 A-2) ----         ------------- j (hz) -------------

 fermi-contact contribution:             
  isotropic    k=      21.653                              j=      26.508
      21.653       0.000       0.000             26.508       0.000       0.000
       0.000      21.653       0.000              0.000      26.508       0.000
       0.000       0.000      21.653              0.000       0.000      26.508

 total calculated spin-spin coupling:    
  isotropic    k=      21.653                              j=      26.508
      21.653       0.000       0.000             26.508       0.000       0.000
       0.000      21.653       0.000              0.000      26.508       0.000
       0.000       0.000      21.653              0.000       0.000      26.508
 
 ---------------------------------
   Principal Axis Representation  
 ---------------------------------

 ----- k (10^19 kg m-2 s-2 A-2) ----         ------------- j (hz) -------------

 fermi-contact contribution:             
  isotropic    k=      21.653                              j=      26.508
      21.653       0.000       0.000             26.508       0.000       0.000
       0.000      21.653       0.000              0.000      26.508       0.000
       0.000       0.000      21.653              0.000       0.000      26.508

 total calculated spin-spin coupling:    
  isotropic    k=      21.653                              j=      26.508
      21.653       0.000       0.000             26.508       0.000       0.000
       0.000      21.653       0.000              0.000      26.508       0.000
       0.000       0.000      21.653              0.000       0.000      26.508
 
 Principal Axis System (u,v,w) expressed in Cartesians:
 (taken as eigenvectors of the symmetric part of the coupling tensor,
  sorted in ascending order of eigenvalues = principal values)
        u         v         w
        1.000     0.000     0.000
        0.000     1.000     0.000
        0.000     0.000     1.000



 ========================================
  Nucleus 4 (P) perturbing nucleus 12 (C)
 ========================================
  
 Internal CPL numbering of atoms:  P(4) perturbing  C(12)
 ADF-GUI atoms:  P(2) perturbing  C(24)
  
 ---------------------------------
   Cartesian Axis Representation  
 ---------------------------------

 ----- k (10^19 kg m-2 s-2 A-2) ----         ------------- j (hz) -------------

 fermi-contact contribution:             
  isotropic    k=       1.745                              j=       2.137
       1.745       0.000       0.000              2.137       0.000       0.000
       0.000       1.745       0.000              0.000       2.137       0.000
       0.000       0.000       1.745              0.000       0.000       2.137

 total calculated spin-spin coupling:    
  isotropic    k=       1.745                              j=       2.137
       1.745       0.000       0.000              2.137       0.000       0.000
       0.000       1.745       0.000              0.000       2.137       0.000
       0.000       0.000       1.745              0.000       0.000       2.137
 
 ---------------------------------
   Principal Axis Representation  
 ---------------------------------

 ----- k (10^19 kg m-2 s-2 A-2) ----         ------------- j (hz) -------------

 fermi-contact contribution:             
  isotropic    k=       1.745                              j=       2.137
       1.745       0.000       0.000              2.137       0.000       0.000
       0.000       1.745       0.000              0.000       2.137       0.000
       0.000       0.000       1.745              0.000       0.000       2.137

 total calculated spin-spin coupling:    
  isotropic    k=       1.745                              j=       2.137
       1.745       0.000       0.000              2.137       0.000       0.000
       0.000       1.745       0.000              0.000       2.137       0.000
       0.000       0.000       1.745              0.000       0.000       2.137
 
 Principal Axis System (u,v,w) expressed in Cartesians:
 (taken as eigenvectors of the symmetric part of the coupling tensor,
  sorted in ascending order of eigenvalues = principal values)
        u         v         w
        1.000     0.000     0.000
        0.000     1.000     0.000
        0.000     0.000     1.000



 ========================================
  Nucleus 4 (P) perturbing nucleus 29 (H)
 ========================================
  
 Internal CPL numbering of atoms:  P(4) perturbing  H(29)
 ADF-GUI atoms:  P(2) perturbing  H(25)
  
 ---------------------------------
   Cartesian Axis Representation  
 ---------------------------------

 ----- k (10^19 kg m-2 s-2 A-2) ----         ------------- j (hz) -------------

 fermi-contact contribution:             
  isotropic    k=      -0.057                              j=      -0.276
      -0.057       0.000       0.000             -0.276       0.000       0.000
       0.000      -0.057       0.000              0.000      -0.276       0.000
       0.000       0.000      -0.057              0.000       0.000      -0.276

 total calculated spin-spin coupling:    
  isotropic    k=      -0.057                              j=      -0.276
      -0.057       0.000       0.000             -0.276       0.000       0.000
       0.000      -0.057       0.000              0.000      -0.276       0.000
       0.000       0.000      -0.057              0.000       0.000      -0.276
 
 ---------------------------------
   Principal Axis Representation  
 ---------------------------------

 ----- k (10^19 kg m-2 s-2 A-2) ----         ------------- j (hz) -------------

 fermi-contact contribution:             
  isotropic    k=      -0.057                              j=      -0.276
      -0.057       0.000       0.000             -0.276       0.000       0.000
       0.000      -0.057       0.000              0.000      -0.276       0.000
       0.000       0.000      -0.057              0.000       0.000      -0.276

 total calculated spin-spin coupling:    
  isotropic    k=      -0.057                              j=      -0.276
      -0.057       0.000       0.000             -0.276       0.000       0.000
       0.000      -0.057       0.000              0.000      -0.276       0.000
       0.000       0.000      -0.057              0.000       0.000      -0.276
 
 Principal Axis System (u,v,w) expressed in Cartesians:
 (taken as eigenvectors of the symmetric part of the coupling tensor,
  sorted in ascending order of eigenvalues = principal values)
        u         v         w
        1.000     0.000     0.000
        0.000     1.000     0.000
        0.000     0.000     1.000



 ========================================
  Nucleus 4 (P) perturbing nucleus 30 (H)
 ========================================
  
 Internal CPL numbering of atoms:  P(4) perturbing  H(30)
 ADF-GUI atoms:  P(2) perturbing  H(26)
  
 ---------------------------------
   Cartesian Axis Representation  
 ---------------------------------

 ----- k (10^19 kg m-2 s-2 A-2) ----         ------------- j (hz) -------------

 fermi-contact contribution:             
  isotropic    k=      -0.107                              j=      -0.523
      -0.107       0.000       0.000             -0.523       0.000       0.000
       0.000      -0.107       0.000              0.000      -0.523       0.000
       0.000       0.000      -0.107              0.000       0.000      -0.523

 total calculated spin-spin coupling:    
  isotropic    k=      -0.107                              j=      -0.523
      -0.107       0.000       0.000             -0.523       0.000       0.000
       0.000      -0.107       0.000              0.000      -0.523       0.000
       0.000       0.000      -0.107              0.000       0.000      -0.523
 
 ---------------------------------
   Principal Axis Representation  
 ---------------------------------

 ----- k (10^19 kg m-2 s-2 A-2) ----         ------------- j (hz) -------------

 fermi-contact contribution:             
  isotropic    k=      -0.107                              j=      -0.523
      -0.107       0.000       0.000             -0.523       0.000       0.000
       0.000      -0.107       0.000              0.000      -0.523       0.000
       0.000       0.000      -0.107              0.000       0.000      -0.523

 total calculated spin-spin coupling:    
  isotropic    k=      -0.107                              j=      -0.523
      -0.107       0.000       0.000             -0.523       0.000       0.000
       0.000      -0.107       0.000              0.000      -0.523       0.000
       0.000       0.000      -0.107              0.000       0.000      -0.523
 
 Principal Axis System (u,v,w) expressed in Cartesians:
 (taken as eigenvectors of the symmetric part of the coupling tensor,
  sorted in ascending order of eigenvalues = principal values)
        u         v         w
        1.000     0.000     0.000
        0.000     1.000     0.000
        0.000     0.000     1.000



 ========================================
  Nucleus 4 (P) perturbing nucleus 31 (H)
 ========================================
  
 Internal CPL numbering of atoms:  P(4) perturbing  H(31)
 ADF-GUI atoms:  P(2) perturbing  H(29)
  
 ---------------------------------
   Cartesian Axis Representation  
 ---------------------------------

 ----- k (10^19 kg m-2 s-2 A-2) ----         ------------- j (hz) -------------

 fermi-contact contribution:             
  isotropic    k=      -0.017                              j=      -0.083
      -0.017       0.000       0.000             -0.083       0.000       0.000
       0.000      -0.017       0.000              0.000      -0.083       0.000
       0.000       0.000      -0.017              0.000       0.000      -0.083

 total calculated spin-spin coupling:    
  isotropic    k=      -0.017                              j=      -0.083
      -0.017       0.000       0.000             -0.083       0.000       0.000
       0.000      -0.017       0.000              0.000      -0.083       0.000
       0.000       0.000      -0.017              0.000       0.000      -0.083
 
 ---------------------------------
   Principal Axis Representation  
 ---------------------------------

 ----- k (10^19 kg m-2 s-2 A-2) ----         ------------- j (hz) -------------

 fermi-contact contribution:             
  isotropic    k=      -0.017                              j=      -0.083
      -0.017       0.000       0.000             -0.083       0.000       0.000
       0.000      -0.017       0.000              0.000      -0.083       0.000
       0.000       0.000      -0.017              0.000       0.000      -0.083

 total calculated spin-spin coupling:    
  isotropic    k=      -0.017                              j=      -0.083
      -0.017       0.000       0.000             -0.083       0.000       0.000
       0.000      -0.017       0.000              0.000      -0.083       0.000
       0.000       0.000      -0.017              0.000       0.000      -0.083
 
 Principal Axis System (u,v,w) expressed in Cartesians:
 (taken as eigenvectors of the symmetric part of the coupling tensor,
  sorted in ascending order of eigenvalues = principal values)
        u         v         w
        1.000     0.000     0.000
        0.000     1.000     0.000
        0.000     0.000     1.000



 ========================================
  Nucleus 4 (P) perturbing nucleus 15 (C)
 ========================================
  
 Internal CPL numbering of atoms:  P(4) perturbing  C(15)
 ADF-GUI atoms:  P(2) perturbing  C(30)
  
 ---------------------------------
   Cartesian Axis Representation  
 ---------------------------------

 ----- k (10^19 kg m-2 s-2 A-2) ----         ------------- j (hz) -------------

 fermi-contact contribution:             
  isotropic    k=       0.895                              j=       1.096
       0.895       0.000       0.000              1.096       0.000       0.000
       0.000       0.895       0.000              0.000       1.096       0.000
       0.000       0.000       0.895              0.000       0.000       1.096

 total calculated spin-spin coupling:    
  isotropic    k=       0.895                              j=       1.096
       0.895       0.000       0.000              1.096       0.000       0.000
       0.000       0.895       0.000              0.000       1.096       0.000
       0.000       0.000       0.895              0.000       0.000       1.096
 
 ---------------------------------
   Principal Axis Representation  
 ---------------------------------

 ----- k (10^19 kg m-2 s-2 A-2) ----         ------------- j (hz) -------------

 fermi-contact contribution:             
  isotropic    k=       0.895                              j=       1.096
       0.895       0.000       0.000              1.096       0.000       0.000
       0.000       0.895       0.000              0.000       1.096       0.000
       0.000       0.000       0.895              0.000       0.000       1.096

 total calculated spin-spin coupling:    
  isotropic    k=       0.895                              j=       1.096
       0.895       0.000       0.000              1.096       0.000       0.000
       0.000       0.895       0.000              0.000       1.096       0.000
       0.000       0.000       0.895              0.000       0.000       1.096
 
 Principal Axis System (u,v,w) expressed in Cartesians:
 (taken as eigenvectors of the symmetric part of the coupling tensor,
  sorted in ascending order of eigenvalues = principal values)
        u         v         w
        1.000     0.000     0.000
        0.000     1.000     0.000
        0.000     0.000     1.000



 ========================================
  Nucleus 4 (P) perturbing nucleus 32 (H)
 ========================================
  
 Internal CPL numbering of atoms:  P(4) perturbing  H(32)
 ADF-GUI atoms:  P(2) perturbing  H(31)
  
 ---------------------------------
   Cartesian Axis Representation  
 ---------------------------------

 ----- k (10^19 kg m-2 s-2 A-2) ----         ------------- j (hz) -------------

 fermi-contact contribution:             
  isotropic    k=       3.090                              j=      15.043
       3.090       0.000       0.000             15.043       0.000       0.000
       0.000       3.090       0.000              0.000      15.043       0.000
       0.000       0.000       3.090              0.000       0.000      15.043

 total calculated spin-spin coupling:    
  isotropic    k=       3.090                              j=      15.043
       3.090       0.000       0.000             15.043       0.000       0.000
       0.000       3.090       0.000              0.000      15.043       0.000
       0.000       0.000       3.090              0.000       0.000      15.043
 
 ---------------------------------
   Principal Axis Representation  
 ---------------------------------

 ----- k (10^19 kg m-2 s-2 A-2) ----         ------------- j (hz) -------------

 fermi-contact contribution:             
  isotropic    k=       3.090                              j=      15.043
       3.090       0.000       0.000             15.043       0.000       0.000
       0.000       3.090       0.000              0.000      15.043       0.000
       0.000       0.000       3.090              0.000       0.000      15.043

 total calculated spin-spin coupling:    
  isotropic    k=       3.090                              j=      15.043
       3.090       0.000       0.000             15.043       0.000       0.000
       0.000       3.090       0.000              0.000      15.043       0.000
       0.000       0.000       3.090              0.000       0.000      15.043
 
 Principal Axis System (u,v,w) expressed in Cartesians:
 (taken as eigenvectors of the symmetric part of the coupling tensor,
  sorted in ascending order of eigenvalues = principal values)
        u         v         w
        1.000     0.000     0.000
        0.000     1.000     0.000
        0.000     0.000     1.000
 *******************************************************************************

                             N M R   E X I T
 NORMAL TERMINATION



 =================
 Timing Statistics
 =================
  
 Total Used :                     CPU=     5631.22      System=       13.31     Elapsed=     7614.93

 Calls  Section                     ( Mean, Percentage )
 ---------------------------------------------------------------------------------------------------
     3  ><      ................      0.00    0.00             0.00    0.00             0.00    0.00
     1  GENPT   ................      8.17    0.15             0.40    3.02            10.96    0.14
     8  CALFC   ................    588.23   83.57             1.32   79.19           795.87   83.61
     1  FCPT1   ................    917.19   16.29             2.32   17.46          1236.92   16.24
     1  FCCPL   ................      0.00    0.00             0.00    0.00             0.00    0.00
     1  JCOUPL  ................      0.00    0.00             0.00    0.01             0.01    0.00
     1  EXIT PROCEDURE .........      0.00    0.00             0.04    0.32             0.06    0.00


 Currently Open Files (EXIT00)
 ====================

 Unit    Access Format  Status   Type       Ident (file)
 -------------------------------------------------------
   3      SEQ    FORM   TRANSP  NORMAL      LOGFILE
                                          ( /home/milias/work/projects/open-collection/theoretical_chemistry/projects/nmr_diplomovky/derivaty_markerov/derivative_7_Ivan/ams/srzora/basis_qz4p-j/der7.nmr_opbe_srzora_gnuc_qz4p-j_good_cosmo-chcl3.logfile )
