

 Parallel Execution: Process Information
 ==============================================================================
 Rank   Node Name                              NodeID   MyNodeRank  NodeMaster
    0   adf1                                      0          0          0
    1   adf1                                      0          1         -1
    2   adf1                                      0          2         -1
    3   adf1                                      0          3         -1
    4   adf1                                      0          4         -1
    5   adf1                                      0          5         -1
    6   adf1                                      0          6         -1
    7   adf1                                      0          7         -1
    8   adf1                                      0          8         -1
    9   adf1                                      0          9         -1
   10   adf1                                      0         10         -1
   11   adf1                                      0         11         -1
 ==============================================================================


May use up to 22932MB of RAM as shared memory on node 0

 *******************************************************************************
 *                                                                             *
 *  --------------------------------                                           *
 *   Amsterdam Modeling Suite (AMS)              2020.202                      *
 *  --------------------------------                                           *
 *                                               r90167 2020-12-05             *
 *                                                                             *
 *                                                                             *
 *                              =================                              *
 *                              |               |                              *
 *                              |     A M S     |                              *
 *                              |               |                              *
 *                              =================                              *
 *                                                                             *
 *                                                                             *
 *   Online information and documentation:  https://www.scm.com/support/       *
 *   E-mail:  support@scm.com   info@scm.com                                   *
 *                                                                             *
 *   Scientific publications using AMS results must be properly referenced     *
 *   See the User Manuals (or the web site) for recommended citations          *
 *   The terms and conditions of the End User License Agreement apply to       *
 *   the use of AMS, https://www.scm.com/license-terms/                        *
 *                                                                             *
 **********************  x86_64_linux_intel / intelmpi  ************************
 
 Licensed to: Dr. Miroslav Ilias / Matej Bel University, Department Chemistry, Fac. Natural Sciences / Banska Bystrica / SLOVAKIA
 SCM User ID: u17848
  
 AMS 2020.202  RunTime: Mar08-2021 13:18:42  Nodes: 1  Procs: 12

 AMS jobname: ams
 AMS jobid  : 1210850108

 Start   directory: /home/milias/Work/projects/open-collection/theoretical_chemistry/projects/nmr_diplomovky/HD/ams/b3lyp_tz2p_good/cosmo-water/tmp.milias.14753.0.noindex/
 Results directory: /home/milias/Work/projects/open-collection/theoretical_chemistry/projects/nmr_diplomovky/HD/ams/b3lyp_tz2p_good/cosmo-water/HD.geopt_freq_nmr_shield_b3lyp_tz2p_good_cosmo-water.results/
 Scratch directory: /tmp/amstmp_ams_kid0.1210850108/


 Communication costs MPI_COMM_WORLD:      2.949 usec per message,   0.0309 usec per 8-byte item
 Communication costs for intra-node:      2.754 usec per message,   0.0273 usec per 8-byte item

 RNG seed: 2052021706 1272206880 1732915133 -1495580265 -505437186 -918687683 930075789 1493273012



                       *********************************************************************
                       *  ADF 2020.202  RunTime: Mar08-2021 13:18:43  Nodes: 1  Procs: 12  *
                       *********************************************************************
  
       ***************************
       *  GEOMETRY OPTIMIZATION  *
       ***************************

Optimization Method                    Quasi Newton
Optimization Coordinates               Delocalized Coordinates
Optimize lattice                       F
 
 ------------------------------------------------------
 Convergence criteria (Hartree,Angstrom)
 ------------------------------------------------------
 Maximum gradient               0.001000000000
 Maximum rms gradient           0.000666666667
 Maximum step allowed           0.001000000000
 Maximum rms step allowed       0.000666666667
 Maximum energy change allowe   0.000150000000
 Maximum stress energy allowe   0.000500000000
 
Initial model Hessian                  Automatic Hessian
 
------------------------------------
Quasi-Newton Optimizer Parameters
------------------------------------
Hessian Update Method                  BFGS
Maximum number of steps                  250
First GDIIS cycle                          0
Maximum GDIIS vectors                      0
Trust radius (bohr)                        0.200000
Trust radius varies                        T
Constraints converged at all steps         T
Use projector                              T
 
 Rigid motions settings for: old optimizer
 Atomic rotations (x,y,z):     T T T
 Atomic translations (x,y,z):  T T T
 Tolerance:                   1.000000000000000E-006
 
--------
Geometry
--------
Atoms
  Index Symbol   x (angstrom)   y (angstrom)   z (angstrom)
      1      S     0.00000000     0.00000000    -0.96409152       adf.R=1.792
      2      C     1.37501509    -0.00000000     0.21685130       adf.R=1.700
      3      H     1.30512517     0.88873637     0.84453259       adf.R=1.350
      4      H     1.30512517    -0.88873637     0.84453259       adf.R=1.350
      5      C     2.66916499    -0.00000000    -0.55880650       adf.R=1.700
      6      H     2.77232676     0.88838475    -1.17667721       adf.R=1.350
      7      H     2.77232676    -0.88838475    -1.17667721       adf.R=1.350
      8      C    -1.37501509     0.00000000     0.21685130       adf.R=1.700
      9      H    -1.30512517    -0.88873637     0.84453259       adf.R=1.350
     10      H    -1.30512517     0.88873637     0.84453259       adf.R=1.350
     11      C    -2.66916499     0.00000000    -0.55880650       adf.R=1.700
     12      H    -2.77232676     0.88838475    -1.17667721       adf.R=1.350
     13      H    -2.77232676    -0.88838475    -1.17667721       adf.R=1.350
     14     Cl     4.06535945    -0.00000000     0.56633977       adf.R=1.725
     15     Cl    -4.06535945     0.00000000     0.56633977       adf.R=1.725
 
Total System Charge             0.00000
Bonding info available!
 
 
----------------
ADF Engine Input
----------------
 
 Basis
 Type TZ2P
 Core None
 End
 Save TAPE10
 XC
 Hybrid B3LYP
 End
 Relativity
 Level None
 End
 Solvation
 Surf Delley
 Solv name=Water cav0=0.0 cav1=0.0067639
 Charged method=CONJ
 C-Mat POT
 SCF VAR ALL
 CSMRSP
 End
 NumericalQuality Good
 

 Title: *** (NO TITLE) ***

Number of symmetry operators: 4
Schoenflies symbol:           C(2V)
 Using automatic Hessian for delocalized coordinates.
 *** GOStep1 ***

 SOLVATION
-------------------------------------------

  The Delley construction of COSMO surface surface is calculated

       Division Level for Surface Triangles (NDIV)                  3
       Final Division Level for Triangles (NFDIV)                   1
       Radius of the Solvent (RSOL)                           1.93000 angstr
  Dielectric Constant (EPSL)                                 78.39000

       COSMO equation is solved iteratively-               conjugate-gradient

       Maximun of Iterations for Charges (NCIX)                  1000
       Criterion for Charge convergence (CCNV)                1.0E-08

  COSMO charges included variationally in SCF

       COSMO included at every SCF cycle

  Geometry-dependent empirical factor                         0.00000

  C-Matrix calculated in cspmtx

  In cspmtx, C-Matrix calculated using fitted potential

-------------------------------------------



 -------------------------------------------
  COSMO surface
  Area             =          590.995
  Volume           =          985.944
  Number of Points =         1433
 -------------------------------------------



 ======================
 RI Hartree-Fock Scheme
 ======================
  
 Fit Set Quality     : GOOD
 Integration Quality : GOOD
 Threshold Quality   : GOOD
 Response Quality    : DEFAULT
 Is Range Separated  :  F
 
 RIHartreeFock Dependency: number of modified vectors:          12
 cosmo_calcen: 0.5 (esolb+esolc) (Hartrees) =   -0.009894

 Solvation energy (screening term,uncorrected) =     -6.208569 kcal/mol

 Solvation energy (dispersion and cavitation terms) =      1.105115 kcal/mol
 Solvation Energy Contributions (Hartrees)
          esola   esolb+esolc
     0.00989398   -0.01978797
 esol last cycle   -0.00989398
  
 Hartree-Fock exchange energy:   -103.691115113363     
 cosmo_calcen: 0.5 (esolb+esolc) (Hartrees) =   -0.009894

 Solvation energy (screening term,uncorrected) =     -6.208569 kcal/mol

 Solvation energy (dispersion and cavitation terms) =      1.105115 kcal/mol
 Solvation Energy Contributions (Hartrees)
          esola   esolb+esolc
     0.00989398   -0.01978797
 esol last cycle   -0.00989398
  pauli hf:                              1.082038529849253         29.4438           678.99          2840.89
  elstat hf:                            -1.054320253622411        -28.6895          -661.60         -2768.12

 Energy gradients wrt nuclear displacements
 ==========================================

     Atom      Cartesian (a.u./angstrom)
                 X         Y         Z
 ----------------------------------------
     1 S     0.000000  0.000000  0.015155
     2 C    -0.002641 -0.000000 -0.009698
     3 H    -0.000361  0.001343  0.000177
     4 H    -0.000361 -0.001343  0.000177
     5 C     0.004941 -0.000000  0.013301
     6 H     0.000156  0.001443 -0.000500
     7 H     0.000156 -0.001443 -0.000500
     8 C     0.002641  0.000000 -0.009698
     9 H     0.000361 -0.001343  0.000177
    10 H     0.000361  0.001343  0.000177
    11 C    -0.004941  0.000000  0.013301
    12 H    -0.000156  0.001443 -0.000500
    13 H    -0.000156 -0.001443 -0.000500
    14 Cl   -0.015173  0.000000 -0.010534
    15 Cl    0.015173  0.000000 -0.010534
 ----------------------------------------
 Mulliken charges used for AMS results%charges...
 
----------------------------------------------------------------------
Geometry Convergence after Step   1       (Hartree/Angstrom,Angstrom)
----------------------------------------------------------------------
current energy                               -3.10212143 Hartree
energy change                      -3.10212143     0.00015000    F
constrained gradient max            0.01517316     0.00100000    F
constrained gradient rms            0.00583864     0.00066667    F
gradient max                        0.01517316
gradient rms                        0.00583864
cart. step max                      0.03724338     0.00100000    F
cart. step rms                      0.01277540     0.00066667    F
 
 
--------
Geometry
--------
Atoms
  Index Symbol   x (angstrom)   y (angstrom)   z (angstrom)
      1      S     0.00000000    -0.00000000    -0.96189691       adf.R=1.792
      2      C     1.38977761    -0.00000000     0.21485696       adf.R=1.700
      3      H     1.32172591     0.88679269     0.84430011       adf.R=1.350
      4      H     1.32172591    -0.88679269     0.84430011       adf.R=1.350
      5      C     2.69187661    -0.00000000    -0.55756128       adf.R=1.700
      6      H     2.79444644     0.88664208    -1.17658115       adf.R=1.350
      7      H     2.79444644    -0.88664208    -1.17658115       adf.R=1.350
      8      C    -1.38977761     0.00000000     0.21485696       adf.R=1.700
      9      H    -1.32172591    -0.88679269     0.84430011       adf.R=1.350
     10      H    -1.32172591     0.88679269     0.84430011       adf.R=1.350
     11      C    -2.69187661     0.00000000    -0.55756128       adf.R=1.700
     12      H    -2.79444644     0.88664208    -1.17658115       adf.R=1.350
     13      H    -2.79444644    -0.88664208    -1.17658115       adf.R=1.350
     14     Cl     4.10260283    -0.00000000     0.56626441       adf.R=1.725
     15     Cl    -4.10260283     0.00000000     0.56626441       adf.R=1.725
 
Total System Charge             0.00000
Bonding info available!
 
 *** GOStep2 ***

 SOLVATION
-------------------------------------------

  The Delley construction of COSMO surface surface is calculated

       Division Level for Surface Triangles (NDIV)                  3
       Final Division Level for Triangles (NFDIV)                   1
       Radius of the Solvent (RSOL)                           1.93000 angstr
  Dielectric Constant (EPSL)                                 78.39000

       COSMO equation is solved iteratively-               conjugate-gradient

       Maximun of Iterations for Charges (NCIX)                  1000
       Criterion for Charge convergence (CCNV)                1.0E-08

  COSMO charges included variationally in SCF

       COSMO included at every SCF cycle

  Geometry-dependent empirical factor                         0.00000

  C-Matrix calculated in cspmtx

  In cspmtx, C-Matrix calculated using fitted potential

-------------------------------------------



 -------------------------------------------
  COSMO surface
  Area             =          594.567
  Volume           =          990.696
  Number of Points =         1437
 -------------------------------------------



 ======================
 RI Hartree-Fock Scheme
 ======================
  
 Fit Set Quality     : GOOD
 Integration Quality : GOOD
 Threshold Quality   : GOOD
 Response Quality    : DEFAULT
 Is Range Separated  :  F
 
 RIHartreeFock Dependency: number of modified vectors:          12
 cosmo_calcen: 0.5 (esolb+esolc) (Hartrees) =   -0.009958

 Solvation energy (screening term,uncorrected) =     -6.248631 kcal/mol

 Solvation energy (dispersion and cavitation terms) =      1.111794 kcal/mol
 Solvation Energy Contributions (Hartrees)
          esola   esolb+esolc
     0.00995783   -0.01991565
 esol last cycle   -0.00995783
  
 Hartree-Fock exchange energy:   -103.672705619288     
 cosmo_calcen: 0.5 (esolb+esolc) (Hartrees) =   -0.009958

 Solvation energy (screening term,uncorrected) =     -6.248633 kcal/mol

 Solvation energy (dispersion and cavitation terms) =      1.111794 kcal/mol
 Solvation Energy Contributions (Hartrees)
          esola   esolb+esolc
     0.00995783   -0.01991566
 esol last cycle   -0.00995783
  pauli hf:                              1.163701636778029         31.6659           730.23          3055.30
  elstat hf:                            -1.043190184996671        -28.3866          -654.61         -2738.90

 Energy gradients wrt nuclear displacements
 ==========================================

     Atom      Cartesian (a.u./angstrom)
                 X         Y         Z
 ----------------------------------------
     1 S     0.000000  0.000000  0.013116
     2 C    -0.003453 -0.000000 -0.010699
     3 H     0.000102  0.000316  0.000263
     4 H     0.000102 -0.000316  0.000263
     5 C     0.007235  0.000000  0.011419
     6 H    -0.000586  0.000276 -0.000740
     7 H    -0.000586 -0.000276 -0.000740
     8 C     0.003453  0.000000 -0.010699
     9 H    -0.000102 -0.000316  0.000263
    10 H    -0.000102  0.000316  0.000263
    11 C    -0.007235  0.000000  0.011419
    12 H     0.000586  0.000276 -0.000740
    13 H     0.000586 -0.000276 -0.000740
    14 Cl   -0.006698  0.000000 -0.006325
    15 Cl    0.006698  0.000000 -0.006325
 ----------------------------------------
 Mulliken charges used for AMS results%charges...

 dE(predicted):    -0.45506E-03, dE(actual):    -0.52659E-03, Trust radius:    0.200000, all in a.u.
 
----------------------------------------------------------------------
Geometry Convergence after Step   2       (Hartree/Angstrom,Angstrom)
----------------------------------------------------------------------
current energy                               -3.10264801 Hartree
energy change                      -0.00052659     0.00015000    F
constrained gradient max            0.01311575     0.00100000    F
constrained gradient rms            0.00462979     0.00066667    F
gradient max                        0.01311575
gradient rms                        0.00462979
cart. step max                      0.01638823     0.00100000    F
cart. step rms                      0.00521528     0.00066667    F
 
 
--------
Geometry
--------
Atoms
  Index Symbol   x (angstrom)   y (angstrom)   z (angstrom)
      1      S    -0.00000000     0.00000000    -0.97828513       adf.R=1.792
      2      C     1.38891490    -0.00000000     0.21318973       adf.R=1.700
      3      H     1.31837048     0.88630703     0.84203994       adf.R=1.350
      4      H     1.31837048    -0.88630703     0.84203994       adf.R=1.350
      5      C     2.69528936    -0.00000000    -0.55958158       adf.R=1.700
      6      H     2.80371494     0.88673731    -1.17610133       adf.R=1.350
      7      H     2.80371494    -0.88673731    -1.17610133       adf.R=1.350
      8      C    -1.38891490     0.00000000     0.21318973       adf.R=1.700
      9      H    -1.31837048    -0.88630703     0.84203994       adf.R=1.350
     10      H    -1.31837048     0.88630703     0.84203994       adf.R=1.350
     11      C    -2.69528936     0.00000000    -0.55958158       adf.R=1.700
     12      H    -2.80371494     0.88673731    -1.17610133       adf.R=1.350
     13      H    -2.80371494    -0.88673731    -1.17610133       adf.R=1.350
     14     Cl     4.10640809    -0.00000000     0.58170676       adf.R=1.725
     15     Cl    -4.10640809     0.00000000     0.58170676       adf.R=1.725
 
Total System Charge             0.00000
Bonding info available!
 
 *** GOStep3 ***

 SOLVATION
-------------------------------------------

  The Delley construction of COSMO surface surface is calculated

       Division Level for Surface Triangles (NDIV)                  3
       Final Division Level for Triangles (NFDIV)                   1
       Radius of the Solvent (RSOL)                           1.93000 angstr
  Dielectric Constant (EPSL)                                 78.39000

       COSMO equation is solved iteratively-               conjugate-gradient

       Maximun of Iterations for Charges (NCIX)                  1000
       Criterion for Charge convergence (CCNV)                1.0E-08

  COSMO charges included variationally in SCF

       COSMO included at every SCF cycle

  Geometry-dependent empirical factor                         0.00000

  C-Matrix calculated in cspmtx

  In cspmtx, C-Matrix calculated using fitted potential

-------------------------------------------



 -------------------------------------------
  COSMO surface
  Area             =          595.457
  Volume           =          992.601
  Number of Points =         1441
 -------------------------------------------



 ======================
 RI Hartree-Fock Scheme
 ======================
  
 Fit Set Quality     : GOOD
 Integration Quality : GOOD
 Threshold Quality   : GOOD
 Response Quality    : DEFAULT
 Is Range Separated  :  F
 
 RIHartreeFock Dependency: number of modified vectors:          12
 cosmo_calcen: 0.5 (esolb+esolc) (Hartrees) =   -0.010143

 Solvation energy (screening term,uncorrected) =     -6.364806 kcal/mol

 Solvation energy (dispersion and cavitation terms) =      1.113459 kcal/mol
 Solvation Energy Contributions (Hartrees)
          esola   esolb+esolc
     0.01014296   -0.02028593
 esol last cycle   -0.01014296
  
 Hartree-Fock exchange energy:   -103.657586941808     
 cosmo_calcen: 0.5 (esolb+esolc) (Hartrees) =   -0.010143

 Solvation energy (screening term,uncorrected) =     -6.364808 kcal/mol

 Solvation energy (dispersion and cavitation terms) =      1.113459 kcal/mol
 Solvation Energy Contributions (Hartrees)
          esola   esolb+esolc
     0.01014297   -0.02028593
 esol last cycle   -0.01014297
  pauli hf:                              1.079014430809725         29.3615           677.09          2832.95
  elstat hf:                            -1.034366317295692        -28.1465          -649.07         -2715.73

 Energy gradients wrt nuclear displacements
 ==========================================

     Atom      Cartesian (a.u./angstrom)
                 X         Y         Z
 ----------------------------------------
     1 S     0.000000  0.000000  0.002619
     2 C    -0.004964  0.000000 -0.002916
     3 H     0.000451 -0.000328  0.000731
     4 H     0.000451  0.000328  0.000731
     5 C     0.005963  0.000000  0.003504
     6 H    -0.000651 -0.000428 -0.000823
     7 H    -0.000651  0.000428 -0.000823
     8 C     0.004964  0.000000 -0.002916
     9 H    -0.000451  0.000328  0.000731
    10 H    -0.000451 -0.000328  0.000731
    11 C    -0.005963 -0.000000  0.003504
    12 H     0.000651 -0.000428 -0.000823
    13 H     0.000651  0.000428 -0.000823
    14 Cl   -0.001901 -0.000000 -0.001714
    15 Cl    0.001901  0.000000 -0.001714
 ----------------------------------------
 Mulliken charges used for AMS results%charges...

 dE(predicted):    -0.22242E-03, dE(actual):    -0.27110E-03, Trust radius:    0.200000, all in a.u.
 
----------------------------------------------------------------------
Geometry Convergence after Step   3       (Hartree/Angstrom,Angstrom)
----------------------------------------------------------------------
current energy                               -3.10291912 Hartree
energy change                      -0.00027110     0.00015000    F
constrained gradient max            0.00596262     0.00100000    F
constrained gradient rms            0.00205716     0.00066667    F
gradient max                        0.00596262
gradient rms                        0.00205716
cart. step max                      0.00356822     0.00100000    F
cart. step rms                      0.00180035     0.00066667    F
 
 
--------
Geometry
--------
Atoms
  Index Symbol   x (angstrom)   y (angstrom)   z (angstrom)
      1      S     0.00000000     0.00000000    -0.97769700       adf.R=1.792
      2      C     1.39237482    -0.00000000     0.21561758       adf.R=1.700
      3      H     1.32113525     0.88737485     0.84241363       adf.R=1.350
      4      H     1.32113525    -0.88737485     0.84241363       adf.R=1.350
      5      C     2.69500899    -0.00000000    -0.56270166       adf.R=1.700
      6      H     2.80601562     0.88812142    -1.17629756       adf.R=1.350
      7      H     2.80601562    -0.88812142    -1.17629756       adf.R=1.350
      8      C    -1.39237482     0.00000000     0.21561758       adf.R=1.700
      9      H    -1.32113525    -0.88737485     0.84241363       adf.R=1.350
     10      H    -1.32113525     0.88737485     0.84241363       adf.R=1.350
     11      C    -2.69500899     0.00000000    -0.56270166       adf.R=1.700
     12      H    -2.80601562     0.88812142    -1.17629756       adf.R=1.350
     13      H    -2.80601562    -0.88812142    -1.17629756       adf.R=1.350
     14     Cl     4.10997631    -0.00000000     0.58175000       adf.R=1.725
     15     Cl    -4.10997631     0.00000000     0.58175000       adf.R=1.725
 
Total System Charge             0.00000
Bonding info available!
 
 *** GOStep4 ***

 SOLVATION
-------------------------------------------

  The Delley construction of COSMO surface surface is calculated

       Division Level for Surface Triangles (NDIV)                  3
       Final Division Level for Triangles (NFDIV)                   1
       Radius of the Solvent (RSOL)                           1.93000 angstr
  Dielectric Constant (EPSL)                                 78.39000

       COSMO equation is solved iteratively-               conjugate-gradient

       Maximun of Iterations for Charges (NCIX)                  1000
       Criterion for Charge convergence (CCNV)                1.0E-08

  COSMO charges included variationally in SCF

       COSMO included at every SCF cycle

  Geometry-dependent empirical factor                         0.00000

  C-Matrix calculated in cspmtx

  In cspmtx, C-Matrix calculated using fitted potential

-------------------------------------------



 -------------------------------------------
  COSMO surface
  Area             =          596.356
  Volume           =          993.989
  Number of Points =         1433
 -------------------------------------------



 ======================
 RI Hartree-Fock Scheme
 ======================
  
 Fit Set Quality     : GOOD
 Integration Quality : GOOD
 Threshold Quality   : GOOD
 Response Quality    : DEFAULT
 Is Range Separated  :  F
 
 RIHartreeFock Dependency: number of modified vectors:          12
 cosmo_calcen: 0.5 (esolb+esolc) (Hartrees) =   -0.010284

 Solvation energy (screening term,uncorrected) =     -6.453139 kcal/mol

 Solvation energy (dispersion and cavitation terms) =      1.115140 kcal/mol
 Solvation Energy Contributions (Hartrees)
          esola   esolb+esolc
     0.01028373   -0.02056746
 esol last cycle   -0.01028373
  
 Hartree-Fock exchange energy:   -103.653026858599     
 cosmo_calcen: 0.5 (esolb+esolc) (Hartrees) =   -0.010284

 Solvation energy (screening term,uncorrected) =     -6.453141 kcal/mol

 Solvation energy (dispersion and cavitation terms) =      1.115140 kcal/mol
 Solvation Energy Contributions (Hartrees)
          esola   esolb+esolc
     0.01028373   -0.02056747
 esol last cycle   -0.01028373
  pauli hf:                              1.072780861275444         29.1919           673.18          2816.59
  elstat hf:                            -1.031499566119816        -28.0685          -647.28         -2708.20

 Energy gradients wrt nuclear displacements
 ==========================================

     Atom      Cartesian (a.u./angstrom)
                 X         Y         Z
 ----------------------------------------
     1 S     0.000000  0.000000  0.000156
     2 C    -0.002831 -0.000000  0.000105
     3 H     0.000226 -0.000163  0.000424
     4 H     0.000226  0.000163  0.000424
     5 C     0.003416  0.000000  0.000005
     6 H    -0.000259 -0.000205 -0.000380
     7 H    -0.000259  0.000205 -0.000380
     8 C     0.002831  0.000000  0.000105
     9 H    -0.000226  0.000163  0.000424
    10 H    -0.000226 -0.000163  0.000424
    11 C    -0.003416 -0.000000  0.000005
    12 H     0.000259 -0.000205 -0.000380
    13 H     0.000259  0.000205 -0.000380
    14 Cl   -0.000560  0.000000 -0.000276
    15 Cl    0.000560 -0.000000 -0.000276
 ----------------------------------------
 Mulliken charges used for AMS results%charges...

 dE(predicted):    -0.44448E-04, dE(actual):    -0.53331E-04, Trust radius:    0.200000, all in a.u.
 
----------------------------------------------------------------------
Geometry Convergence after Step   4       (Hartree/Angstrom,Angstrom)
----------------------------------------------------------------------
current energy                               -3.10297245 Hartree
energy change                      -0.00005333     0.00015000    T
constrained gradient max            0.00341591     0.00100000    F
constrained gradient rms            0.00096885     0.00066667    F
gradient max                        0.00341591
gradient rms                        0.00096885
cart. step max                      0.00190394     0.00100000    F
cart. step rms                      0.00078405     0.00066667    F
 
 
--------
Geometry
--------
Atoms
  Index Symbol   x (angstrom)   y (angstrom)   z (angstrom)
      1      S     0.00000000     0.00000000    -0.97825566       adf.R=1.792
      2      C     1.39305408    -0.00000000     0.21618381       adf.R=1.700
      3      H     1.32060847     0.88819423     0.84140078       adf.R=1.350
      4      H     1.32060847    -0.88819423     0.84140078       adf.R=1.350
      5      C     2.69310504    -0.00000000    -0.56315825       adf.R=1.700
      6      H     2.80562608     0.88896087    -1.17506195       adf.R=1.350
      7      H     2.80562608    -0.88896087    -1.17506195       adf.R=1.350
      8      C    -1.39305408     0.00000000     0.21618381       adf.R=1.700
      9      H    -1.32060847    -0.88819423     0.84140078       adf.R=1.350
     10      H    -1.32060847     0.88819423     0.84140078       adf.R=1.350
     11      C    -2.69310504     0.00000000    -0.56315825       adf.R=1.700
     12      H    -2.80562608     0.88896087    -1.17506195       adf.R=1.350
     13      H    -2.80562608    -0.88896087    -1.17506195       adf.R=1.350
     14     Cl     4.11049392    -0.00000000     0.58147416       adf.R=1.725
     15     Cl    -4.11049392     0.00000000     0.58147416       adf.R=1.725
 
Total System Charge             0.00000
Bonding info available!
 
 *** GOStep5 ***

 SOLVATION
-------------------------------------------

  The Delley construction of COSMO surface surface is calculated

       Division Level for Surface Triangles (NDIV)                  3
       Final Division Level for Triangles (NFDIV)                   1
       Radius of the Solvent (RSOL)                           1.93000 angstr
  Dielectric Constant (EPSL)                                 78.39000

       COSMO equation is solved iteratively-               conjugate-gradient

       Maximun of Iterations for Charges (NCIX)                  1000
       Criterion for Charge convergence (CCNV)                1.0E-08

  COSMO charges included variationally in SCF

       COSMO included at every SCF cycle

  Geometry-dependent empirical factor                         0.00000

  C-Matrix calculated in cspmtx

  In cspmtx, C-Matrix calculated using fitted potential

-------------------------------------------



 -------------------------------------------
  COSMO surface
  Area             =          596.424
  Volume           =          994.303
  Number of Points =         1441
 -------------------------------------------



 ======================
 RI Hartree-Fock Scheme
 ======================
  
 Fit Set Quality     : GOOD
 Integration Quality : GOOD
 Threshold Quality   : GOOD
 Response Quality    : DEFAULT
 Is Range Separated  :  F
 
 RIHartreeFock Dependency: number of modified vectors:          12
 cosmo_calcen: 0.5 (esolb+esolc) (Hartrees) =   -0.010351

 Solvation energy (screening term,uncorrected) =     -6.495535 kcal/mol

 Solvation energy (dispersion and cavitation terms) =      1.115266 kcal/mol
 Solvation Energy Contributions (Hartrees)
          esola   esolb+esolc
     0.01035129   -0.02070258
 esol last cycle   -0.01035129
  
 Hartree-Fock exchange energy:   -103.652915756543     
 cosmo_calcen: 0.5 (esolb+esolc) (Hartrees) =   -0.010351

 Solvation energy (screening term,uncorrected) =     -6.495537 kcal/mol

 Solvation energy (dispersion and cavitation terms) =      1.115266 kcal/mol
 Solvation Energy Contributions (Hartrees)
          esola   esolb+esolc
     0.01035130   -0.02070259
 esol last cycle   -0.01035130
  pauli hf:                              1.070399998022758         29.1271           671.69          2810.33
  elstat hf:                            -1.031325754817466        -28.0638          -647.17         -2707.75

 Energy gradients wrt nuclear displacements
 ==========================================

     Atom      Cartesian (a.u./angstrom)
                 X         Y         Z
 ----------------------------------------
     1 S     0.000000  0.000000 -0.000409
     2 C    -0.001052  0.000000  0.000765
     3 H     0.000099  0.000002  0.000053
     4 H     0.000099 -0.000002  0.000053
     5 C     0.001179 -0.000000 -0.000668
     6 H    -0.000056 -0.000000 -0.000006
     7 H    -0.000056  0.000000 -0.000006
     8 C     0.001052 -0.000000  0.000765
     9 H    -0.000099 -0.000002  0.000053
    10 H    -0.000099  0.000002  0.000053
    11 C    -0.001179  0.000000 -0.000668
    12 H     0.000056 -0.000000 -0.000006
    13 H     0.000056  0.000000 -0.000006
    14 Cl   -0.000099  0.000000  0.000013
    15 Cl    0.000099  0.000000  0.000013
 ----------------------------------------
 Mulliken charges used for AMS results%charges...

 dE(predicted):    -0.11070E-04, dE(actual):    -0.11925E-04, Trust radius:    0.200000, all in a.u.
 
----------------------------------------------------------------------
Geometry Convergence after Step   5       (Hartree/Angstrom,Angstrom)
----------------------------------------------------------------------
current energy                               -3.10298437 Hartree
energy change                      -0.00001192     0.00015000    T
constrained gradient max            0.00117907     0.00100000    F
constrained gradient rms            0.00040303     0.00066667    T
gradient max                        0.00117907
gradient rms                        0.00040303
cart. step max                      0.00105575     0.00100000    F
cart. step rms                      0.00058344     0.00066667    T
 
 
--------
Geometry
--------
Atoms
  Index Symbol   x (angstrom)   y (angstrom)   z (angstrom)
      1      S     0.00000000    -0.00000000    -0.97906877       adf.R=1.792
      2      C     1.39287214    -0.00000000     0.21559914       adf.R=1.700
      3      H     1.31955272     0.88830757     0.84049106       adf.R=1.350
      4      H     1.31955272    -0.88830757     0.84049106       adf.R=1.350
      5      C     2.69238779    -0.00000000    -0.56270241       adf.R=1.700
      6      H     2.80564202     0.88905084    -1.17432142       adf.R=1.350
      7      H     2.80564202    -0.88905084    -1.17432142       adf.R=1.350
      8      C    -1.39287214     0.00000000     0.21559914       adf.R=1.700
      9      H    -1.31955272    -0.88830757     0.84049106       adf.R=1.350
     10      H    -1.31955272     0.88830757     0.84049106       adf.R=1.350
     11      C    -2.69238779     0.00000000    -0.56270241       adf.R=1.700
     12      H    -2.80564202     0.88905084    -1.17432142       adf.R=1.350
     13      H    -2.80564202    -0.88905084    -1.17432142       adf.R=1.350
     14     Cl     4.10982736    -0.00000000     0.58234794       adf.R=1.725
     15     Cl    -4.10982736     0.00000000     0.58234794       adf.R=1.725
 
Total System Charge             0.00000
Bonding info available!
 
 *** GOStep6 ***

 SOLVATION
-------------------------------------------

  The Delley construction of COSMO surface surface is calculated

       Division Level for Surface Triangles (NDIV)                  3
       Final Division Level for Triangles (NFDIV)                   1
       Radius of the Solvent (RSOL)                           1.93000 angstr
  Dielectric Constant (EPSL)                                 78.39000

       COSMO equation is solved iteratively-               conjugate-gradient

       Maximun of Iterations for Charges (NCIX)                  1000
       Criterion for Charge convergence (CCNV)                1.0E-08

  COSMO charges included variationally in SCF

       COSMO included at every SCF cycle

  Geometry-dependent empirical factor                         0.00000

  C-Matrix calculated in cspmtx

  In cspmtx, C-Matrix calculated using fitted potential

-------------------------------------------



 -------------------------------------------
  COSMO surface
  Area             =          596.368
  Volume           =          994.202
  Number of Points =         1441
 -------------------------------------------



 ======================
 RI Hartree-Fock Scheme
 ======================
  
 Fit Set Quality     : GOOD
 Integration Quality : GOOD
 Threshold Quality   : GOOD
 Response Quality    : DEFAULT
 Is Range Separated  :  F
 
 RIHartreeFock Dependency: number of modified vectors:          12
 cosmo_calcen: 0.5 (esolb+esolc) (Hartrees) =   -0.010364

 Solvation energy (screening term,uncorrected) =     -6.503628 kcal/mol

 Solvation energy (dispersion and cavitation terms) =      1.115161 kcal/mol
 Solvation Energy Contributions (Hartrees)
          esola   esolb+esolc
     0.01036419   -0.02072838
 esol last cycle   -0.01036419
  
 Hartree-Fock exchange energy:   -103.653659192170     
 cosmo_calcen: 0.5 (esolb+esolc) (Hartrees) =   -0.010364

 Solvation energy (screening term,uncorrected) =     -6.503630 kcal/mol

 Solvation energy (dispersion and cavitation terms) =      1.115161 kcal/mol
 Solvation Energy Contributions (Hartrees)
          esola   esolb+esolc
     0.01036419   -0.02072838
 esol last cycle   -0.01036419
  pauli hf:                              1.069947058074227         29.1147           671.40          2809.15
  elstat hf:                            -1.031740800522378        -28.0751          -647.43         -2708.84

 Energy gradients wrt nuclear displacements
 ==========================================

     Atom      Cartesian (a.u./angstrom)
                 X         Y         Z
 ----------------------------------------
     1 S     0.000000  0.000000 -0.000155
     2 C    -0.000251 -0.000000  0.000395
     3 H     0.000028  0.000024 -0.000059
     4 H     0.000028 -0.000024 -0.000059
     5 C     0.000303 -0.000000 -0.000326
     6 H    -0.000013  0.000033  0.000069
     7 H    -0.000013 -0.000033  0.000069
     8 C     0.000251  0.000000  0.000395
     9 H    -0.000028 -0.000024 -0.000059
    10 H    -0.000028  0.000024 -0.000059
    11 C    -0.000303  0.000000 -0.000326
    12 H     0.000013  0.000033  0.000069
    13 H     0.000013 -0.000033  0.000069
    14 Cl   -0.000037  0.000000 -0.000010
    15 Cl    0.000037 -0.000000 -0.000010
 ----------------------------------------
 Mulliken charges used for AMS results%charges...

 dE(predicted):    -0.14772E-05, dE(actual):    -0.20183E-05, Trust radius:    0.200000, all in a.u.
 
---------------------------------------------------------
Geometry Convergence after Step   6       ** CONVERGED **
---------------------------------------------------------
current energy                               -3.10298639 Hartree
energy change                      -0.00000202     0.00015000    T
constrained gradient max            0.00039451     0.00100000    T
constrained gradient rms            0.00014175     0.00066667    T
gradient max                        0.00039451
gradient rms                        0.00014175
cart. step max                      0.00057079     0.00100000    T
cart. step rms                      0.00027344     0.00066667    T
 
Geometry optimization converged

Optimized geometry:
 
--------
Geometry
--------
Atoms
  Index Symbol   x (angstrom)   y (angstrom)   z (angstrom)
      1      S     0.00000000    -0.00000000    -0.97906877       adf.R=1.792
      2      C     1.39287214    -0.00000000     0.21559914       adf.R=1.700
      3      H     1.31955272     0.88830757     0.84049106       adf.R=1.350
      4      H     1.31955272    -0.88830757     0.84049106       adf.R=1.350
      5      C     2.69238779    -0.00000000    -0.56270241       adf.R=1.700
      6      H     2.80564202     0.88905084    -1.17432142       adf.R=1.350
      7      H     2.80564202    -0.88905084    -1.17432142       adf.R=1.350
      8      C    -1.39287214     0.00000000     0.21559914       adf.R=1.700
      9      H    -1.31955272    -0.88830757     0.84049106       adf.R=1.350
     10      H    -1.31955272     0.88830757     0.84049106       adf.R=1.350
     11      C    -2.69238779     0.00000000    -0.56270241       adf.R=1.700
     12      H    -2.80564202     0.88905084    -1.17432142       adf.R=1.350
     13      H    -2.80564202    -0.88905084    -1.17432142       adf.R=1.350
     14     Cl     4.10982736    -0.00000000     0.58234794       adf.R=1.725
     15     Cl    -4.10982736     0.00000000     0.58234794       adf.R=1.725
 
Total System Charge             0.00000
Bonding info available!
 
Performing a single point calculation on the final geometry ...

 *** adf ***



 ===========================
 A T T A C H E D   F I L E S
 ===========================
  
 Restart/tmp/amstmp_ams_kid0.1210850108/GOStep6.rkf*** GOStep6 ***



 ===============================
 M O D E L   P A R A M E T E R S
 ===============================
  
 DENSITY FUNCTIONAL POTENTIAL (scf)
    Hybrid:                            B3LYP                                   == Not Default ==

 SPIN  (restricted / unrestr.)
    Molecule:                          Restricted                               
    Fragments:                         Restricted                               

 OTHER ASPECTS
    Relativistic Corrections:          ---                                     == Not Default ==

    Nuclear Charge Density Model:      Point Charge Nuclei                      
    Core Treatment:                    Frozen Orbital(s)                        

    Hyperfine or Zeeman Interaction:   ---                                      

 SOLVATION
-------------------------------------------

  The Delley construction of COSMO surface surface is calculated

       Division Level for Surface Triangles (NDIV)                  3
       Final Division Level for Triangles (NFDIV)                   1
       Radius of the Solvent (RSOL)                           1.93000 angstr
  Dielectric Constant (EPSL)                                 78.39000

       COSMO equation is solved iteratively-               conjugate-gradient

       Maximun of Iterations for Charges (NCIX)                  1000
       Criterion for Charge convergence (CCNV)                1.0E-08

  COSMO charges included variationally in SCF

       COSMO included at every SCF cycle

  Geometry-dependent empirical factor                         0.00000

  C-Matrix calculated in cspmtx

  In cspmtx, C-Matrix calculated using fitted potential

-------------------------------------------




 ===============
 G E O M E T R Y  ***  3D  Molecule  ***
 ===============
  

 ATOMS
 =====                            X Y Z                    CHARGE                     RADIUS
                                (Angstrom)             Nucl     +Core       At.Mass (Angstrom)
                       --------------------------    ----------------       ------- ----------
    1  S               0.0000   -0.0000   -0.9791     16.00     16.00       31.9721    1.7920
    2  C               1.3929   -0.0000    0.2156      6.00      6.00       12.0000    1.7000
    3  H               1.3196    0.8883    0.8405      1.00      1.00        1.0078    1.3500
    4  H               1.3196   -0.8883    0.8405      1.00      1.00        1.0078    1.3500
    5  C               2.6924   -0.0000   -0.5627      6.00      6.00       12.0000    1.7000
    6  H               2.8056    0.8891   -1.1743      1.00      1.00        1.0078    1.3500
    7  H               2.8056   -0.8891   -1.1743      1.00      1.00        1.0078    1.3500
    8  C              -1.3929    0.0000    0.2156      6.00      6.00       12.0000    1.7000
    9  H              -1.3196   -0.8883    0.8405      1.00      1.00        1.0078    1.3500
   10  H              -1.3196    0.8883    0.8405      1.00      1.00        1.0078    1.3500
   11  C              -2.6924    0.0000   -0.5627      6.00      6.00       12.0000    1.7000
   12  H              -2.8056    0.8891   -1.1743      1.00      1.00        1.0078    1.3500
   13  H              -2.8056   -0.8891   -1.1743      1.00      1.00        1.0078    1.3500
   14  Cl              4.1098   -0.0000    0.5823     17.00     17.00       34.9689    1.7250
   15  Cl             -4.1098    0.0000    0.5823     17.00     17.00       34.9689    1.7250


 FRAGMENTS
 =========                                     Atoms in this Fragment     Cart. coord.s (Angstrom)
                                               -------------------------------------------------------
    1  S                                                 1  S            0.0000   -0.0000   -0.9791
    2  C                                                 2  C            1.3929   -0.0000    0.2156
    3  C                                                 5  C            2.6924   -0.0000   -0.5627
    4  C                                                 8  C           -1.3929    0.0000    0.2156
    5  C                                                11  C           -2.6924    0.0000   -0.5627
    6  H                                                 3  H            1.3196    0.8883    0.8405
    7  H                                                 4  H            1.3196   -0.8883    0.8405
    8  H                                                 6  H            2.8056    0.8891   -1.1743
    9  H                                                 7  H            2.8056   -0.8891   -1.1743
   10  H                                                 9  H           -1.3196   -0.8883    0.8405
   11  H                                                10  H           -1.3196    0.8883    0.8405
   12  H                                                12  H           -2.8056    0.8891   -1.1743
   13  H                                                13  H           -2.8056   -0.8891   -1.1743
   14  Cl                                               14  Cl           4.1098   -0.0000    0.5823
   15  Cl                                               15  Cl          -4.1098    0.0000    0.5823


 Interatomic Distance Matrix (Angstrom)
 --------------------------------------

   1)     0.000
   2)     1.835   0.000
   3)     2.417   1.089   0.000
   4)     2.417   1.089   1.777   0.000
   5)     2.724   1.515   2.155   2.155   0.000
   6)     2.950   2.172   2.504   3.070   1.085   0.000
   7)     2.950   2.172   3.070   2.504   1.085   1.778   0.000
   8)     1.835   2.786   2.922   2.922   4.159   4.511   4.511   0.000
   9)     2.417   2.922   3.181   2.639   4.342   4.923   4.591   1.089   0.000
  10)     2.417   2.922   2.639   3.181   4.342   4.591   4.923   1.089   1.777   0.000
  11)     2.724   4.159   4.342   4.342   5.385   5.603   5.603   1.515   2.155   2.155
          0.000
  12)     2.950   4.511   4.591   4.923   5.603   5.611   5.886   2.172   3.070   2.504
          1.085   0.000
  13)     2.950   4.511   4.923   4.591   5.603   5.886   5.611   2.172   2.504   3.070
          1.085   1.778   0.000
  14)     4.396   2.742   2.940   2.940   1.822   2.362   2.362   5.515   5.508   5.508
          6.898   7.190   7.190   0.000
  15)     4.396   5.515   5.508   5.508   6.898   7.190   7.190   2.742   2.940   2.940
          1.822   2.362   2.362   8.220   0.000

 Min. Distance =    1.0850
 Max. Distance =    8.2197



 =====================================
 S Y M M E T R Y ,   E L E C T R O N S
 =====================================
  
 Symmetry: C(2V)

 Irreducible Representations, including subspecies
 -------------------------------------------------
 A1
 A2
 B1
 B2

 Symmetry is NOT used when fitting density


 Configuration of Valence Electrons
 ==================================
 ( determined in the SCF procedure )

 Total:   82

 Net Charge: 0 (Nuclei minus Electrons)

 Aufbau principle for MO occupations will be applied through SCF cycle no.     150
 Thereafter, the program will assign electrons to MOs that are spatially
 similar to the occupied MOs in a "reference" cycle ("KeepOrbitals").
 The reference cycle is always the PREVIOUS cycle: it will evolve with
 the SCF procedure.
1
 ***************************************************************************************************



                                      ****************************************
                                      *  B U I L D : (Fragments, Functions)  *
                                      ****************************************
  



 =======
 S F O s  ***  (Symmetrized Fragment Orbitals)  ***
 =======
  
 SFOs are linear combinations of (valence) Fragment Orbitals (FOs), such that the SFOs transform as the
 irreducible representations of the (molecular) symmetry group. Each SFO is therefore characterized by
 an irrep of the molecule and by a few (or only one) generating FOs.
 The SFOs constitute a symmetry-adapted basis for the Fock matrix. The MO eigenvector coefficients in
 this basis provide a direct interpretation of the MOs in terms of Frontier Orbital Theory.

 The SFOs are combined with auxiliary Core Functions (CFs) to ensure orthogonalization on the (frozen)
 Core Orbitals (COs). The Core-orthogonalized SFOs (CSFOs) constitute the true Fock basis.

 The FOs, and hence also the (C)SFOs are combinations of the elementary basis functions (BAS). The basis
 functions that participate in the description of the SFOs depend on the irrep. The indices of the
 involved functions are printed below for each irrep.
 (The complete list of primitive basis functions is printed in another section)

 Total nr. of (C)SFOs (summation over all irreps) :   294

 NOTE: a (C)SFO that is defined as a combination of more than one FO is usually NOT normalized.



                                       === A1 ===
 Nr. of SFOs :   98
 Cartesian basis functions that participate in this irrep (total number =   252) :
      1     2     3     4    11    12    13     7    10    16
     19    22    28    23    26    38    31    36    39    99
     40   100    41   101    42   102    43   103    46   106
     49   109    52   112    44   104    47   107    50   110
     58   118    55   115    53    56   113   116    68   128
     64   124    61    66   121   126    59    62   119   122
     69   129    70   130    71   131    72   132    73   133
     76   136    79   139    82   142    74   134    77   137
     80   140    88   148    85   145    83    86   143   146
     98   158    94   154    91    96   151   156    89    92
    149   152   159   171   207   219   160   172   208   220
    161   173   209   221   164   176   212   224   162   163
    174   175   210   211   222   223   170   182   218   230
    167   169   179   181   215   217   227   229   165   166
    168   177   178   180   213   214   216   225   226   228
    183   195   231   243   184   196   232   244   185   197
    233   245   188   200   236   248   186   187   198   199
    234   235   246   247   194   206   242   254   191   193
    203   205   239   241   251   253   189   190   192   201
    202   204   237   238   240   249   250   252   255   293
    256   294   257   295   258   296   265   303   266   304
    267   305   261   299   264   302   270   308   273   311
    276   314   259   297   262   300   268   306   271   309
    274   312   282   320   279   317   277   280   315   318
    292   330   288   326   285   290   323   328   283   286
    321   324

    SFO  (index         Fragment          Generating    Expansion in Fragment Orbitals
  indx  incl.CFs)   Occup   Orb.Energy   FragmentType  Coeff.   Orbital     on Fragment
 --------------------------------------------------------------------------------------
     1       1      2.000     -88.923 au  S             1.00      1 S               1
                        (   -2419.725 eV)
     2       2      2.000      -7.997 au  S             1.00      2 S               1
                        (    -217.618 eV)
     3       3      2.000      -0.691 au  S             1.00      3 S               1
                        (     -18.798 eV)
     4       4       --         0.219 au  S             1.00      4 S               1
                        (       5.958 eV)
     5       5       --         2.101 au  S             1.00      5 S               1
                        (      57.181 eV)
     6       6       --        12.826 au  S             1.00      6 S               1
                        (     349.000 eV)
     7       7       --       200.465 au  S             1.00      7 S               1
                        (    5454.923 eV)
     8       8      2.000      -5.953 au  S             1.00      1 P:z             1
                        (    -162.002 eV)
     9       9      1.333      -0.272 au  S             1.00      2 P:z             1
                        (      -7.400 eV)
    10      10       --         0.147 au  S             1.00      3 P:z             1
                        (       3.990 eV)
    11      11       --         1.258 au  S             1.00      4 P:z             1
                        (      34.238 eV)
    12      12       --        13.236 au  S             1.00      5 P:z             1
                        (     360.181 eV)
    13      13       --         0.479 au  S             1.00      1 D:z2            1
                        (      13.042 eV)
    14      14       --         0.479 au  S             1.00      1 D:x2-y2         1
                        (      13.042 eV)
    15      15       --         1.328 au  S             1.00      1 F:z3            1
                        (      36.128 eV)
    16      16       --         1.328 au  S             1.00      1 F:z             1
                        (      36.128 eV)
    17      17      2.000     -10.347 au  C             0.71      1 S               2
                        (    -281.545 eV)               0.71      1 S               4
    18      18      2.000      -0.564 au  C             0.71      2 S               2
                        (     -15.345 eV)               0.71      2 S               4
    19      19       --         0.402 au  C             0.71      3 S               2
                        (      10.943 eV)               0.71      3 S               4
    20      20       --         5.509 au  C             0.71      4 S               2
                        (     149.900 eV)               0.71      4 S               4
    21      21       --        50.546 au  C             0.71      5 S               2
                        (    1375.418 eV)               0.71      5 S               4
    22      22      0.667      -0.188 au  C             0.71      1 P:x             2
                        (      -5.110 eV)              -0.71      1 P:x             4
    23      23       --         0.191 au  C             0.71      2 P:x             2
                        (       5.204 eV)              -0.71      2 P:x             4
    24      24       --         2.089 au  C             0.71      3 P:x             2
                        (      56.851 eV)              -0.71      3 P:x             4
    25      25      0.667      -0.188 au  C             0.71      1 P:z             2
                        (      -5.110 eV)               0.71      1 P:z             4
    26      26       --         0.191 au  C             0.71      2 P:z             2
                        (       5.204 eV)               0.71      2 P:z             4
    27      27       --         2.089 au  C             0.71      3 P:z             2
                        (      56.851 eV)               0.71      3 P:z             4
    28      28       --         1.292 au  C             0.71      1 D:z2            2
                        (      35.150 eV)               0.71      1 D:z2            4
    29      29       --         1.292 au  C             0.71      1 D:x2-y2         2
                        (      35.150 eV)               0.71      1 D:x2-y2         4
    30      30       --         1.292 au  C             0.71      1 D:xz            2
                        (      35.150 eV)              -0.71      1 D:xz            4
    31      31       --         4.084 au  C             0.71      1 F:z3            2
                        (     111.144 eV)               0.71      1 F:z3            4
    32      32       --         4.084 au  C             0.71      1 F:z             2
                        (     111.144 eV)               0.71      1 F:z             4
    33      33       --         4.084 au  C             0.71      1 F:z2x           2
                        (     111.144 eV)              -0.71      1 F:z2x           4
    34      34       --         4.084 au  C             0.71      1 F:x             2
                        (     111.144 eV)              -0.71      1 F:x             4
    35      35      2.000     -10.347 au  C             0.71      1 S               3
                        (    -281.545 eV)               0.71      1 S               5
    36      36      2.000      -0.564 au  C             0.71      2 S               3
                        (     -15.345 eV)               0.71      2 S               5
    37      37       --         0.402 au  C             0.71      3 S               3
                        (      10.943 eV)               0.71      3 S               5
    38      38       --         5.509 au  C             0.71      4 S               3
                        (     149.900 eV)               0.71      4 S               5
    39      39       --        50.546 au  C             0.71      5 S               3
                        (    1375.418 eV)               0.71      5 S               5
    40      40      0.667      -0.188 au  C             0.71      1 P:x             3
                        (      -5.110 eV)              -0.71      1 P:x             5
    41      41       --         0.191 au  C             0.71      2 P:x             3
                        (       5.204 eV)              -0.71      2 P:x             5
    42      42       --         2.089 au  C             0.71      3 P:x             3
                        (      56.851 eV)              -0.71      3 P:x             5
    43      43      0.667      -0.188 au  C             0.71      1 P:z             3
                        (      -5.110 eV)               0.71      1 P:z             5
    44      44       --         0.191 au  C             0.71      2 P:z             3
                        (       5.204 eV)               0.71      2 P:z             5
    45      45       --         2.089 au  C             0.71      3 P:z             3
                        (      56.851 eV)               0.71      3 P:z             5
    46      46       --         1.292 au  C             0.71      1 D:z2            3
                        (      35.150 eV)               0.71      1 D:z2            5
    47      47       --         1.292 au  C             0.71      1 D:x2-y2         3
                        (      35.150 eV)               0.71      1 D:x2-y2         5
    48      48       --         1.292 au  C             0.71      1 D:xz            3
                        (      35.150 eV)              -0.71      1 D:xz            5
    49      49       --         4.084 au  C             0.71      1 F:z3            3
                        (     111.144 eV)               0.71      1 F:z3            5
    50      50       --         4.084 au  C             0.71      1 F:z             3
                        (     111.144 eV)               0.71      1 F:z             5
    51      51       --         4.084 au  C             0.71      1 F:z2x           3
                        (     111.144 eV)              -0.71      1 F:z2x           5
    52      52       --         4.084 au  C             0.71      1 F:x             3
                        (     111.144 eV)              -0.71      1 F:x             5
    53      53      1.000      -0.244 au  H             0.50      1 S               6
                        (      -6.641 eV)               0.50      1 S               7
                                                        0.50      1 S              10
                                                        0.50      1 S              11
    54      54       --         0.104 au  H             0.50      2 S               6
                        (       2.836 eV)               0.50      2 S               7
                                                        0.50      2 S              10
                                                        0.50      2 S              11
    55      55       --         1.564 au  H             0.50      3 S               6
                        (      42.568 eV)               0.50      3 S               7
                                                        0.50      3 S              10
                                                        0.50      3 S              11
    56      56       --         0.436 au  H             0.50      1 P:x             6
                        (      11.864 eV)               0.50      1 P:x             7
                                                       -0.50      1 P:x            10
                                                       -0.50      1 P:x            11
    57      57       --         0.436 au  H             0.50      1 P:y             6
                        (      11.864 eV)              -0.50      1 P:y             7
                                                       -0.50      1 P:y            10
                                                        0.50      1 P:y            11
    58      58       --         0.436 au  H             0.50      1 P:z             6
                        (      11.864 eV)               0.50      1 P:z             7
                                                        0.50      1 P:z            10
                                                        0.50      1 P:z            11
    59      59       --         2.618 au  H             0.50      1 D:z2            6
                        (      71.229 eV)               0.50      1 D:z2            7
                                                        0.50      1 D:z2           10
                                                        0.50      1 D:z2           11
    60      60       --         2.618 au  H             0.50      1 D:x2-y2         6
                        (      71.229 eV)               0.50      1 D:x2-y2         7
                                                        0.50      1 D:x2-y2        10
                                                        0.50      1 D:x2-y2        11
    61      61       --         2.618 au  H             0.50      1 D:xy            6
                        (      71.229 eV)              -0.50      1 D:xy            7
                                                        0.50      1 D:xy           10
                                                       -0.50      1 D:xy           11
    62      62       --         2.618 au  H             0.50      1 D:xz            6
                        (      71.229 eV)               0.50      1 D:xz            7
                                                       -0.50      1 D:xz           10
                                                       -0.50      1 D:xz           11
    63      63       --         2.618 au  H             0.50      1 D:yz            6
                        (      71.229 eV)              -0.50      1 D:yz            7
                                                       -0.50      1 D:yz           10
                                                        0.50      1 D:yz           11
    64      64      1.000      -0.244 au  H             0.50      1 S               8
                        (      -6.641 eV)               0.50      1 S               9
                                                        0.50      1 S              12
                                                        0.50      1 S              13
    65      65       --         0.104 au  H             0.50      2 S               8
                        (       2.836 eV)               0.50      2 S               9
                                                        0.50      2 S              12
                                                        0.50      2 S              13
    66      66       --         1.564 au  H             0.50      3 S               8
                        (      42.568 eV)               0.50      3 S               9
                                                        0.50      3 S              12
                                                        0.50      3 S              13
    67      67       --         0.436 au  H             0.50      1 P:x             8
                        (      11.864 eV)               0.50      1 P:x             9
                                                       -0.50      1 P:x            12
                                                       -0.50      1 P:x            13
    68      68       --         0.436 au  H             0.50      1 P:y             8
                        (      11.864 eV)              -0.50      1 P:y             9
                                                        0.50      1 P:y            12
                                                       -0.50      1 P:y            13
    69      69       --         0.436 au  H             0.50      1 P:z             8
                        (      11.864 eV)               0.50      1 P:z             9
                                                        0.50      1 P:z            12
                                                        0.50      1 P:z            13
    70      70       --         2.618 au  H             0.50      1 D:z2            8
                        (      71.229 eV)               0.50      1 D:z2            9
                                                        0.50      1 D:z2           12
                                                        0.50      1 D:z2           13
    71      71       --         2.618 au  H             0.50      1 D:x2-y2         8
                        (      71.229 eV)               0.50      1 D:x2-y2         9
                                                        0.50      1 D:x2-y2        12
                                                        0.50      1 D:x2-y2        13
    72      72       --         2.618 au  H             0.50      1 D:xy            8
                        (      71.229 eV)              -0.50      1 D:xy            9
                                                       -0.50      1 D:xy           12
                                                        0.50      1 D:xy           13
    73      73       --         2.618 au  H             0.50      1 D:xz            8
                        (      71.229 eV)               0.50      1 D:xz            9
                                                       -0.50      1 D:xz           12
                                                       -0.50      1 D:xz           13
    74      74       --         2.618 au  H             0.50      1 D:yz            8
                        (      71.229 eV)              -0.50      1 D:yz            9
                                                        0.50      1 D:yz           12
                                                       -0.50      1 D:yz           13
    75      75      2.000    -101.573 au  Cl            0.71      1 S              14
                        (   -2763.950 eV)               0.71      1 S              15
    76      76      2.000      -9.507 au  Cl            0.71      2 S              14
                        (    -258.705 eV)               0.71      2 S              15
    77      77      2.000      -0.826 au  Cl            0.71      3 S              14
                        (     -22.469 eV)               0.71      3 S              15
    78      78       --         0.224 au  Cl            0.71      4 S              14
                        (       6.084 eV)               0.71      4 S              15
    79      79       --         2.073 au  Cl            0.71      5 S              14
                        (      56.416 eV)               0.71      5 S              15
    80      80       --        12.919 au  Cl            0.71      6 S              14
                        (     351.531 eV)               0.71      6 S              15
    81      81       --       215.576 au  Cl            0.71      7 S              14
                        (    5866.129 eV)               0.71      7 S              15
    82      82      2.000      -7.261 au  Cl            0.71      1 P:x            14
                        (    -197.594 eV)              -0.71      1 P:x            15
    83      83      1.667      -0.345 au  Cl            0.71      2 P:x            14
                        (      -9.401 eV)              -0.71      2 P:x            15
    84      84       --         0.251 au  Cl            0.71      3 P:x            14
                        (       6.842 eV)              -0.71      3 P:x            15
    85      85       --         2.178 au  Cl            0.71      4 P:x            14
                        (      59.266 eV)              -0.71      4 P:x            15
    86      86       --        19.086 au  Cl            0.71      5 P:x            14
                        (     519.368 eV)              -0.71      5 P:x            15
    87      87      2.000      -7.261 au  Cl            0.71      1 P:z            14
                        (    -197.594 eV)               0.71      1 P:z            15
    88      88      1.667      -0.345 au  Cl            0.71      2 P:z            14
                        (      -9.401 eV)               0.71      2 P:z            15
    89      89       --         0.251 au  Cl            0.71      3 P:z            14
                        (       6.842 eV)               0.71      3 P:z            15
    90      90       --         2.178 au  Cl            0.71      4 P:z            14
                        (      59.266 eV)               0.71      4 P:z            15
    91      91       --        19.086 au  Cl            0.71      5 P:z            14
                        (     519.368 eV)               0.71      5 P:z            15
    92      92       --         0.433 au  Cl            0.71      1 D:z2           14
                        (      11.776 eV)               0.71      1 D:z2           15
    93      93       --         0.433 au  Cl            0.71      1 D:x2-y2        14
                        (      11.776 eV)               0.71      1 D:x2-y2        15
    94      94       --         0.433 au  Cl            0.71      1 D:xz           14
                        (      11.776 eV)              -0.71      1 D:xz           15
    95      95       --         1.240 au  Cl            0.71      1 F:z3           14
                        (      33.755 eV)               0.71      1 F:z3           15
    96      96       --         1.240 au  Cl            0.71      1 F:z            14
                        (      33.755 eV)               0.71      1 F:z            15
    97      97       --         1.240 au  Cl            0.71      1 F:z2x          14
                        (      33.755 eV)              -0.71      1 F:z2x          15
    98      98       --         1.240 au  Cl            0.71      1 F:x            14
                        (      33.755 eV)              -0.71      1 F:x            15



                                       === A2 ===
 Nr. of SFOs :   50
 Cartesian basis functions that participate in this irrep (total number =   156) :
     24    33    45   105    48   108    51   111    57   117
     54   114    67   127    63   123    60    65   120   125
     75   135    78   138    81   141    87   147    84   144
     97   157    93   153    90    95   150   155   159   171
    207   219   160   172   208   220   161   173   209   221
    164   176   212   224   162   163   174   175   210   211
    222   223   170   182   218   230   167   169   179   181
    215   217   227   229   165   166   168   177   178   180
    213   214   216   225   226   228   183   195   231   243
    184   196   232   244   185   197   233   245   188   200
    236   248   186   187   198   199   234   235   246   247
    194   206   242   254   191   193   203   205   239   241
    251   253   189   190   192   201   202   204   237   238
    240   249   250   252   260   298   263   301   269   307
    272   310   275   313   281   319   278   316   291   329
    287   325   284   289   322   327

    SFO  (index         Fragment          Generating    Expansion in Fragment Orbitals
  indx  incl.CFs)   Occup   Orb.Energy   FragmentType  Coeff.   Orbital     on Fragment
 --------------------------------------------------------------------------------------
     1       1       --         0.479 au  S             1.00      1 D:xy            1
                        (      13.042 eV)
     2       2       --         1.328 au  S             1.00      1 F:xyz           1
                        (      36.128 eV)
     3       3      0.667      -0.188 au  C             0.71      1 P:y             2
                        (      -5.110 eV)              -0.71      1 P:y             4
     4       4       --         0.191 au  C             0.71      2 P:y             2
                        (       5.204 eV)              -0.71      2 P:y             4
     5       5       --         2.089 au  C             0.71      3 P:y             2
                        (      56.851 eV)              -0.71      3 P:y             4
     6       6       --         1.292 au  C             0.71      1 D:xy            2
                        (      35.150 eV)               0.71      1 D:xy            4
     7       7       --         1.292 au  C             0.71      1 D:yz            2
                        (      35.150 eV)              -0.71      1 D:yz            4
     8       8       --         4.084 au  C             0.71      1 F:xyz           2
                        (     111.144 eV)               0.71      1 F:xyz           4
     9       9       --         4.084 au  C             0.71      1 F:z2y           2
                        (     111.144 eV)              -0.71      1 F:z2y           4
    10      10       --         4.084 au  C             0.71      1 F:y             2
                        (     111.144 eV)              -0.71      1 F:y             4
    11      11      0.667      -0.188 au  C             0.71      1 P:y             3
                        (      -5.110 eV)              -0.71      1 P:y             5
    12      12       --         0.191 au  C             0.71      2 P:y             3
                        (       5.204 eV)              -0.71      2 P:y             5
    13      13       --         2.089 au  C             0.71      3 P:y             3
                        (      56.851 eV)              -0.71      3 P:y             5
    14      14       --         1.292 au  C             0.71      1 D:xy            3
                        (      35.150 eV)               0.71      1 D:xy            5
    15      15       --         1.292 au  C             0.71      1 D:yz            3
                        (      35.150 eV)              -0.71      1 D:yz            5
    16      16       --         4.084 au  C             0.71      1 F:xyz           3
                        (     111.144 eV)               0.71      1 F:xyz           5
    17      17       --         4.084 au  C             0.71      1 F:z2y           3
                        (     111.144 eV)              -0.71      1 F:z2y           5
    18      18       --         4.084 au  C             0.71      1 F:y             3
                        (     111.144 eV)              -0.71      1 F:y             5
    19      19      1.000      -0.244 au  H             0.50      1 S               6
                        (      -6.641 eV)              -0.50      1 S               7
                                                        0.50      1 S              10
                                                       -0.50      1 S              11
    20      20       --         0.104 au  H             0.50      2 S               6
                        (       2.836 eV)              -0.50      2 S               7
                                                        0.50      2 S              10
                                                       -0.50      2 S              11
    21      21       --         1.564 au  H             0.50      3 S               6
                        (      42.568 eV)              -0.50      3 S               7
                                                        0.50      3 S              10
                                                       -0.50      3 S              11
    22      22       --         0.436 au  H             0.50      1 P:x             6
                        (      11.864 eV)              -0.50      1 P:x             7
                                                       -0.50      1 P:x            10
                                                        0.50      1 P:x            11
    23      23       --         0.436 au  H             0.50      1 P:y             6
                        (      11.864 eV)               0.50      1 P:y             7
                                                       -0.50      1 P:y            10
                                                       -0.50      1 P:y            11
    24      24       --         0.436 au  H             0.50      1 P:z             6
                        (      11.864 eV)              -0.50      1 P:z             7
                                                        0.50      1 P:z            10
                                                       -0.50      1 P:z            11
    25      25       --         2.618 au  H             0.50      1 D:z2            6
                        (      71.229 eV)              -0.50      1 D:z2            7
                                                        0.50      1 D:z2           10
                                                       -0.50      1 D:z2           11
    26      26       --         2.618 au  H             0.50      1 D:x2-y2         6
                        (      71.229 eV)              -0.50      1 D:x2-y2         7
                                                        0.50      1 D:x2-y2        10
                                                       -0.50      1 D:x2-y2        11
    27      27       --         2.618 au  H             0.50      1 D:xy            6
                        (      71.229 eV)               0.50      1 D:xy            7
                                                        0.50      1 D:xy           10
                                                        0.50      1 D:xy           11
    28      28       --         2.618 au  H             0.50      1 D:xz            6
                        (      71.229 eV)              -0.50      1 D:xz            7
                                                       -0.50      1 D:xz           10
                                                        0.50      1 D:xz           11
    29      29       --         2.618 au  H             0.50      1 D:yz            6
                        (      71.229 eV)               0.50      1 D:yz            7
                                                       -0.50      1 D:yz           10
                                                       -0.50      1 D:yz           11
    30      30      1.000      -0.244 au  H             0.50      1 S               8
                        (      -6.641 eV)              -0.50      1 S               9
                                                       -0.50      1 S              12
[...]
                               0.667    -0.178    -0.724
                               0.716    -0.119     0.688
                        -----------------------------------
 
================================================================================
 
 
===  TOTAL NMR SHIELDING TENSOR (ppm)
 
                        ***********************************
                        CARTESIAN AXIS REPRESENTATION

                        ==== total shielding tensor
                        -----------------------------------
                              29.722    -0.893    -1.762
                              -0.893    25.681    -5.055
                              -1.762    -5.055    28.470
                        -----------------------------------
                                  isotropic =     27.957

                        ***********************************
                        -----------------------------------
                        PRINCIPAL AXIS REPRESENTATION

                        ==== Principal components:

                              21.446    29.820    32.605
 
                        ==== Principal Axis System:

                              -0.212     0.925    -0.315
                              -0.767    -0.357    -0.533
                              -0.605     0.129     0.785
                        -----------------------------------
################################################################################
********************************************************************************
****  N U C L E U S : H(13)
 
 ADF-GUI atom: H(13)
 Internal NMR numbering of atoms: H(13)
 
 
================================================================================
 
 
===  PARAMAGNETIC NMR SHIELDING TENSORS (ppm)
 
    ===     paramagnetic b^(1) tensor       ===     paramagnetic u^(1) tensor
    -----------------------------------     -----------------------------------
           0.000     0.000     0.000               4.472   -14.219   -10.364
           0.000     0.000     0.000             -14.219     2.963   -10.126
           0.000     0.000     0.000             -10.364   -10.126     1.469
    -----------------------------------     -----------------------------------
              isotropic =      0.000                  isotropic =      2.968

    ===     paramagnetic s^(1) tensor       ===     paramagnetic gauge tensor
    -----------------------------------     -----------------------------------
          -3.137    14.971     9.929              -0.319    -0.464    -0.244
          14.971    -4.861     9.561              -0.464    -2.002    -0.280
           9.929     9.561    -1.937              -0.244    -0.280     0.069
    -----------------------------------     -----------------------------------
              isotropic =     -3.312                  isotropic =     -0.751

                        ***********************************
                        CARTESIAN AXIS REPRESENTATION

                        ==== total paramagnetic tensor
                        -----------------------------------
                               1.016     0.288    -0.678
                               0.288    -3.900    -0.845
                              -0.678    -0.845    -0.400
                        -----------------------------------
                                  isotropic =     -1.095

                        ***********************************
                        -----------------------------------
                        PRINCIPAL AXIS REPRESENTATION

                        ==== Principal components:

                              -4.097    -0.543     1.356
 
                        ==== Principal Axis System:

                               0.026     0.421    -0.907
                              -0.976    -0.187    -0.115
                              -0.218     0.888     0.406
                        -----------------------------------
 
================================================================================
 
 
===  DIAMAGNETIC NMR SHIELDING TENSORS (ppm)
 
    ===       diamagnetic core tensor       ===    diamagnetic valence tensor
    -----------------------------------     -----------------------------------
           0.000     0.000     0.000              28.705     0.605    -1.084
           0.000     0.000     0.000               0.605    29.581     5.899
           0.000     0.000     0.000              -1.084     5.899    28.869
    -----------------------------------     -----------------------------------
              isotropic =      0.000                  isotropic =     29.052

                        ***********************************
                        CARTESIAN AXIS REPRESENTATION

                        ==== total diamagnetic tensor
                        -----------------------------------
                              28.705     0.605    -1.084
                               0.605    29.581     5.899
                              -1.084     5.899    28.869
                        -----------------------------------
                                  isotropic =     29.052

                        ***********************************
                        -----------------------------------
                        PRINCIPAL AXIS REPRESENTATION

                        ==== Principal components:

                              23.059    28.948    35.149
 
                        ==== Principal Axis System:

                               0.209     0.977     0.048
                              -0.667     0.178    -0.724
                               0.716    -0.119    -0.688
                        -----------------------------------
 
================================================================================
 
 
===  TOTAL NMR SHIELDING TENSOR (ppm)
 
                        ***********************************
                        CARTESIAN AXIS REPRESENTATION

                        ==== total shielding tensor
                        -----------------------------------
                              29.722     0.893    -1.762
                               0.893    25.681     5.054
                              -1.762     5.054    28.470
                        -----------------------------------
                                  isotropic =     27.957

                        ***********************************
                        -----------------------------------
                        PRINCIPAL AXIS REPRESENTATION

                        ==== Principal components:

                              21.447    29.820    32.604
 
                        ==== Principal Axis System:

                               0.212     0.925    -0.315
                              -0.767     0.357     0.533
                               0.605     0.129     0.785
                        -----------------------------------
################################################################################
********************************************************************************
****  N U C L E U S : Cl(14)
 
 ADF-GUI atom: Cl(14)
 Internal NMR numbering of atoms: Cl(14)
 
 
================================================================================
 
 
===  PARAMAGNETIC NMR SHIELDING TENSORS (ppm)
 
    ===     paramagnetic b^(1) tensor       ===     paramagnetic u^(1) tensor
    -----------------------------------     -----------------------------------
           0.000     0.000     0.000            -212.494    -0.209   280.175
           0.000     0.000     0.000              -0.209  -573.758     0.214
           0.000     0.000     0.000             280.175     0.214  -304.318
    -----------------------------------     -----------------------------------
              isotropic =      0.000                  isotropic =   -363.524

    ===     paramagnetic s^(1) tensor       ===     paramagnetic gauge tensor
    -----------------------------------     -----------------------------------
          53.468    -0.000  -120.556              -0.621     0.000     1.075
          -0.000    55.535     0.000               0.000    -2.673    -0.000
        -120.556     0.000     2.172               1.075    -0.000    -2.983
    -----------------------------------     -----------------------------------
              isotropic =     37.058                  isotropic =     -2.092

                        ***********************************
                        CARTESIAN AXIS REPRESENTATION

                        ==== total paramagnetic tensor
                        -----------------------------------
                            -159.647    -0.209   160.693
                              -0.209  -520.896     0.214
                             160.693     0.214  -305.129
                        -----------------------------------
                                  isotropic =   -328.557

                        ***********************************
                        -----------------------------------
                        PRINCIPAL AXIS REPRESENTATION

                        ==== Principal components:

                            -520.896  -408.778   -55.997
 
                        ==== Principal Axis System:

                              -0.002    -0.542    -0.840
                              -1.000     0.003     0.000
                               0.002     0.840    -0.542
                        -----------------------------------
 
================================================================================
 
 
===  DIAMAGNETIC NMR SHIELDING TENSORS (ppm)
 
    ===       diamagnetic core tensor       ===    diamagnetic valence tensor
    -----------------------------------     -----------------------------------
           0.000     0.000     0.000            1149.876     0.000     4.622
           0.000     0.000     0.000               0.000  1142.486    -0.000
           0.000     0.000     0.000               4.622    -0.000  1146.160
    -----------------------------------     -----------------------------------
              isotropic =      0.000                  isotropic =   1146.174

                        ***********************************
                        CARTESIAN AXIS REPRESENTATION

                        ==== total diamagnetic tensor
                        -----------------------------------
                            1149.876     0.000     4.622
                               0.000  1142.486    -0.000
                               4.622    -0.000  1146.160
                        -----------------------------------
                                  isotropic =   1146.174

                        ***********************************
                        -----------------------------------
                        PRINCIPAL AXIS REPRESENTATION

                        ==== Principal components:

                            1142.486  1143.036  1153.000
 
                        ==== Principal Axis System:

                              -0.000    -0.560     0.829
                               1.000    -0.000    -0.000
                               0.000     0.829     0.560
                        -----------------------------------
 
================================================================================
 
 
===  TOTAL NMR SHIELDING TENSOR (ppm)
 
                        ***********************************
                        CARTESIAN AXIS REPRESENTATION

                        ==== total shielding tensor
                        -----------------------------------
                             990.229    -0.209   165.316
                              -0.209   621.590     0.214
                             165.316     0.214   841.031
                        -----------------------------------
                                  isotropic =    817.617

                        ***********************************
                        -----------------------------------
                        PRINCIPAL AXIS REPRESENTATION

                        ==== Principal components:

                             621.590   734.263  1096.998
 
                        ==== Principal Axis System:

                              -0.002    -0.543    -0.840
                              -1.000     0.003     0.000
                               0.002     0.840    -0.543
                        -----------------------------------
################################################################################
********************************************************************************
****  N U C L E U S : Cl(15)
 
 ADF-GUI atom: Cl(15)
 Internal NMR numbering of atoms: Cl(15)
 
 
================================================================================
 
 
===  PARAMAGNETIC NMR SHIELDING TENSORS (ppm)
 
    ===     paramagnetic b^(1) tensor       ===     paramagnetic u^(1) tensor
    -----------------------------------     -----------------------------------
           0.000     0.000     0.000            -212.362     0.000  -280.403
           0.000     0.000     0.000               0.000  -574.152     0.000
           0.000     0.000     0.000            -280.403     0.000  -304.742
    -----------------------------------     -----------------------------------
              isotropic =      0.000                  isotropic =   -363.752

    ===     paramagnetic s^(1) tensor       ===     paramagnetic gauge tensor
    -----------------------------------     -----------------------------------
          53.468    -0.000   120.556              -0.621     0.000    -1.075
          -0.000    55.535    -0.000               0.000    -2.673     0.000
         120.556    -0.000     2.172              -1.075     0.000    -2.983
    -----------------------------------     -----------------------------------
              isotropic =     37.058                  isotropic =     -2.092

                        ***********************************
                        CARTESIAN AXIS REPRESENTATION

                        ==== total paramagnetic tensor
                        -----------------------------------
                            -159.514     0.000  -160.922
                               0.000  -521.289     0.000
                            -160.922     0.000  -305.553
                        -----------------------------------
                                  isotropic =   -328.786

                        ***********************************
                        -----------------------------------
                        PRINCIPAL AXIS REPRESENTATION

                        ==== Principal components:

                            -521.289  -409.247   -55.820
 
                        ==== Principal Axis System:

                              -0.000     0.542     0.841
                               1.000     0.000     0.000
                              -0.000     0.841    -0.542
                        -----------------------------------
 
================================================================================
 
 
===  DIAMAGNETIC NMR SHIELDING TENSORS (ppm)
 
    ===       diamagnetic core tensor       ===    diamagnetic valence tensor
    -----------------------------------     -----------------------------------
           0.000     0.000     0.000            1149.876    -0.000    -4.622
           0.000     0.000     0.000              -0.000  1142.486     0.000
           0.000     0.000     0.000              -4.622     0.000  1146.160
    -----------------------------------     -----------------------------------
              isotropic =      0.000                  isotropic =   1146.174

                        ***********************************
                        CARTESIAN AXIS REPRESENTATION

                        ==== total diamagnetic tensor
                        -----------------------------------
                            1149.876    -0.000    -4.622
                              -0.000  1142.486     0.000
                              -4.622     0.000  1146.160
                        -----------------------------------
                                  isotropic =   1146.174

                        ***********************************
                        -----------------------------------
                        PRINCIPAL AXIS REPRESENTATION

                        ==== Principal components:

                            1142.486  1143.036  1153.000
 
                        ==== Principal Axis System:

                              -0.000     0.560     0.829
                               1.000     0.000    -0.000
                              -0.000     0.829    -0.560
                        -----------------------------------
 
================================================================================
 
 
===  TOTAL NMR SHIELDING TENSOR (ppm)
 
                        ***********************************
                        CARTESIAN AXIS REPRESENTATION

                        ==== total shielding tensor
                        -----------------------------------
                             990.362     0.000  -165.544
                               0.000   621.197     0.000
                            -165.544     0.000   840.607
                        -----------------------------------
                                  isotropic =    817.389

                        ***********************************
                        -----------------------------------
                        PRINCIPAL AXIS REPRESENTATION

                        ==== Principal components:

                             621.197   733.794  1097.175
 
                        ==== Principal Axis System:

                              -0.000     0.542     0.840
                               1.000     0.000     0.000
                              -0.000     0.840    -0.542
                        -----------------------------------
 *******************************************************************************

                             N M R   E X I T
 NORMAL TERMINATION



 =================
 Timing Statistics
 =================
  
 Total Used :                     CPU=      168.34      System=        3.80     Elapsed=      181.16

 Calls  Section                     ( Mean, Percentage )
 ---------------------------------------------------------------------------------------------------
     3  ><      ................      0.00    0.01             0.00    0.02             0.00    0.01
     1  INIT    ................      0.58    0.34             0.03    0.71             0.70    0.39
     1  RDEIGX  ................     44.85   26.64             0.68   17.99            47.10   26.00
     1  AOF1K   ................      2.45    1.45             0.04    0.94             2.64    1.46
    15  AOPKK   ................      4.47   39.85             0.19   75.85             4.96   41.08
    15  XSIGP   ................      0.02    0.19             0.00    0.34             0.02    0.20
    15  AODKKK  ................      3.53   31.46             0.01    3.77             3.72   30.81
    15  XDV     ................      0.01    0.06             0.00    0.12             0.01    0.06
    15  XSIGD   ................      0.00    0.00             0.00    0.00             0.00    0.00
     1  EXIT PROCEDURE .........      0.00    0.00             0.01    0.26             0.02    0.01


 Currently Open Files (EXIT00)
 ====================

 Unit    Access Format  Status   Type       Ident (file)
 -------------------------------------------------------
   3      SEQ    FORM   TRANSP  NORMAL      LOGFILE
                                          ( /home/milias/Work/projects/open-collection/theoretical_chemistry/projects/nmr_diplomovky/HD/ams/b3lyp_tz2p_good/cosmo-water/HD.geopt_freq_nmr_shield_b3lyp_tz2p_good_cosmo-water.logfile )
