 argument  1 = h2o_scbe.nw
                                         
                                         


             Northwest Computational Chemistry Package (NWChem) 7.0.2
             --------------------------------------------------------


                    Environmental Molecular Sciences Laboratory
                       Pacific Northwest National Laboratory
                                Richland, WA 99352

                              Copyright (c) 1994-2020
                       Pacific Northwest National Laboratory
                            Battelle Memorial Institute

             NWChem is an open-source computational chemistry package
                        distributed under the terms of the
                      Educational Community License (ECL) 2.0
             A copy of the license is included with this distribution
                              in the LICENSE.TXT file

                                  ACKNOWLEDGMENT
                                  --------------

            This software and its documentation were developed at the
            EMSL at Pacific Northwest National Laboratory, a multiprogram
            national laboratory, operated for the U.S. Department of Energy
            by Battelle under Contract Number DE-AC05-76RL01830. Support
            for this work was provided by the Department of Energy Office
            of Biological and Environmental Research, Office of Basic
            Energy Sciences, and the Office of Advanced Scientific Computing.


           Job information
           ---------------

    hostname        = MIRO
    program         = /usr/bin/nwchem
    date            = Tue Oct 22 16:23:07 2024

    compiled        = Sat_Apr_09_17:12:10_2022
    source          = /build/nwchem-f1f4gx/nwchem-7.0.2/build-openmpi
    nwchem branch   = 7.0.2
    nwchem revision = N/A
    ga revision     = 5.8.1
    use scalapack   = T
    input           = h2o_scbe.nw
    prefix          = h2o_scbe.
    data base       = ./h2o_scbe.db
    status          = restart
    nproc           =        4
    time left       =     -1s



           Memory information
           ------------------

    heap     =   13107196 doubles =    100.0 Mbytes
    stack    =   13107201 doubles =    100.0 Mbytes
    global   =   26214400 doubles =    200.0 Mbytes (distinct from heap & stack)
    total    =   52428797 doubles =    400.0 Mbytes
    verify   = yes
    hardfail = no 


           Directory information
           ---------------------

  0 permanent = .
  0 scratch   = .


           Previous task information
           -------------------------

    Theory    = scf                             
    Operation =                               
    Status    = ok                            
    Qmmm      = F
    Ignore    = F


           Geometries in the database
           --------------------------

       Name                              Natoms  Last Modified
       --------------------------------  ------  ------------------------
    1  geometry                               3  Tue Oct 22 16:22:53 2024  

  The geometry named "geometry" is the default for restart



           Basis sets in the database
           --------------------------

       Name                              Natoms  Last Modified
        --------------------------------  ------  ------------------------
    1  ao basis                               2  Tue Oct 22 16:22:54 2024  

  The basis set named "ao basis" is the default AO basis for restart




                                NWChem Input Module
                                -------------------


 C2V symmetry detected

          ------
          auto-z
          ------
  no constraints, skipping    0.0000000000000000     
  no constraints, skipping    0.0000000000000000     


                             Geometry "geometry" -> ""
                             -------------------------

 Output coordinates in a.u. (scale by  1.000000000 to convert to a.u.)

  No.       Tag          Charge          X              Y              Z
 ---- ---------------- ---------- -------------- -------------- --------------
    1 O                    8.0000     0.00000000     0.00000000     0.22140000
    2 H                    1.0000    -1.43000000     0.00000000    -0.88560000
    3 H                    1.0000     1.43000000     0.00000000    -0.88560000

      Atomic Mass 
      ----------- 

      O                 15.994910
      H                  1.007825


 Effective nuclear repulsion energy (a.u.)       9.1971984402

            Nuclear Dipole moment (a.u.) 
            ----------------------------
        X                 Y               Z
 ---------------- ---------------- ----------------
     0.0000000000     0.0000000000     0.0000000000

      Symmetry information
      --------------------

 Group name             C2v       
 Group number             16
 Group order               4
 No. of unique centers     2

      Symmetry unique atoms

     1    2



                                Z-matrix (autoz)
                                -------- 

 Units are Angstrom for bonds and degrees for angles

      Type          Name      I     J     K     L     M      Value
      ----------- --------  ----- ----- ----- ----- ----- ----------
    1 Stretch                  1     2                       0.95697
    2 Stretch                  1     3                       0.95697
    3 Bend                     2     1     3               104.51124


            XYZ format geometry
            -------------------
     3
 geometry
 O                     0.00000000     0.00000000     0.11715984
 H                    -0.75672347     0.00000000    -0.46863937
 H                     0.75672347     0.00000000    -0.46863937

 ==============================================================================
                                internuclear distances
 ------------------------------------------------------------------------------
       center one      |      center two      | atomic units |       a.u.
 ------------------------------------------------------------------------------
    2 H                |   1 O                |     1.80841  |     1.80841
    3 H                |   1 O                |     1.80841  |     1.80841
 ------------------------------------------------------------------------------
                         number of included internuclear distances:          2
 ==============================================================================



 ==============================================================================
                                 internuclear angles
 ------------------------------------------------------------------------------
        center 1       |       center 2       |       center 3       |  degrees
 ------------------------------------------------------------------------------
    2 H                |   1 O                |   3 H                |   104.51
 ------------------------------------------------------------------------------
                            number of included internuclear angles:          1
 ==============================================================================




                               NWChem Python program
                               ---------------------

exponent = 0.1
while (exponent <= 2.01):
    input_parse('''
    basis noprint
     H library 3-21g; O library 3-21g; O d; %f 1.0
    end
    ''' % (exponent))
    print (' exponent = %5.4f,' % exponent, ', energy = %16.10f' % task_energy('scf'))
    exponent = exponent + 0.1

 exponent = 0.1000, , energy =   -75.5945028928
 exponent = 0.1000, , energy =   -75.5945028928
 exponent = 0.1000, , energy =   -75.5945028928
 exponent = 0.1000, , energy =   -75.5945028928
 exponent = 0.2000, , energy =   -75.6076963049
 exponent = 0.2000, , energy =   -75.6076963049
 exponent = 0.2000, , energy =   -75.6076963049
 exponent = 0.2000, , energy =   -75.6076963049
 exponent = 0.3000, , energy =   -75.6124335467
 exponent = 0.3000, , energy =   -75.6124335467
 exponent = 0.3000, , energy =   -75.6124335467
 exponent = 0.3000, , energy =   -75.6124335467
 exponent = 0.4000, , energy =   -75.6221850613
 exponent = 0.4000, , energy =   -75.6221850613
 exponent = 0.4000, , energy =   -75.6221850613
 exponent = 0.4000, , energy =   -75.6221850613
 exponent = 0.5000, , energy =   -75.6308010974
 exponent = 0.5000, , energy =   -75.6308010974
 exponent = 0.5000, , energy =   -75.6308010974
 exponent = 0.5000, , energy =   -75.6308010974
 exponent = 0.6000, , energy =   -75.6276059870
 exponent = 0.6000, , energy =   -75.6276059870
 exponent = 0.6000, , energy =   -75.6276059870
 exponent = 0.6000, , energy =   -75.6276059870
 exponent = 0.7000, , energy =   -75.6118953712
 exponent = 0.7000, , energy =   -75.6118953712
 exponent = 0.7000, , energy =   -75.6118953712
 exponent = 0.7000, , energy =   -75.6118953712
 exponent = 0.8000, , energy =   -75.6171240239
 exponent = 0.8000, , energy =   -75.6171240239
 exponent = 0.8000, , energy =   -75.6171240239
 exponent = 0.8000, , energy =   -75.6171240239
 exponent = 0.9000, , energy =   -75.6246443358
 exponent = 0.9000, , energy =   -75.6246443358
 exponent = 0.9000, , energy =   -75.6246443358
 exponent = 0.9000, , energy =   -75.6246443358
 exponent = 1.0000, , energy =   -75.6299610227
 exponent = 1.0000, , energy =   -75.6299610227
 exponent = 1.0000, , energy =   -75.6299610227
 exponent = 1.0000, , energy =   -75.6299610227
 exponent = 1.1000, , energy =   -75.6334356963
 exponent = 1.1000, , energy =   -75.6334356963
 exponent = 1.1000, , energy =   -75.6334356963
 exponent = 1.1000, , energy =   -75.6334356963
 exponent = 1.2000, , energy =   -75.6356206363
 exponent = 1.2000, , energy =   -75.6356206363
 exponent = 1.2000, , energy =   -75.6356206363
 exponent = 1.2000, , energy =   -75.6356206363
 exponent = 1.3000, , energy =   -75.6368813826
 exponent = 1.3000, , energy =   -75.6368813826
 exponent = 1.3000, , energy =   -75.6368813826
 exponent = 1.3000, , energy =   -75.6368813826
 exponent = 1.4000, , energy =   -75.6374452998
 exponent = 1.4000, , energy =   -75.6374452998
 exponent = 1.4000, , energy =   -75.6374452998
 exponent = 1.4000, , energy =   -75.6374452998
 exponent = 1.5000, , energy =   -75.6374552683
 exponent = 1.5000, , energy =   -75.6374552683
 exponent = 1.5000, , energy =   -75.6374552683
 exponent = 1.5000, , energy =   -75.6374552683
 exponent = 1.6000, , energy =   -75.6370015119
 exponent = 1.6000, , energy =   -75.6370015119
 exponent = 1.6000, , energy =   -75.6370015119
 exponent = 1.6000, , energy =   -75.6370015119
 exponent = 1.7000, , energy =   -75.6361392157
 exponent = 1.7000, , energy =   -75.6361392157
 exponent = 1.7000, , energy =   -75.6361392157
 exponent = 1.7000, , energy =   -75.6361392157
 exponent = 1.8000, , energy =   -75.6348981927
 exponent = 1.8000, , energy =   -75.6348981927
 exponent = 1.8000, , energy =   -75.6348981927
 exponent = 1.8000, , energy =   -75.6348981927
 exponent = 1.9000, , energy =   -75.6332879926
 exponent = 1.9000, , energy =   -75.6332879926
 exponent = 1.9000, , energy =   -75.6332879926
 exponent = 1.9000, , energy =   -75.6332879926
 exponent = 2.0000, , energy =   -75.6313002055
 exponent = 2.0000, , energy =   -75.6313002055
 exponent = 2.0000, , energy =   -75.6313002055
 exponent = 2.0000, , energy =   -75.6313002055


                                     CITATION
                                     --------
                Please cite the following reference when publishing
                           results obtained with NWChem:

          E. Aprà, E. J. Bylaska, W. A. de Jong, N. Govind, K. Kowalski,
       T. P. Straatsma, M. Valiev, H. J. J. van Dam, Y. Alexeev, J. Anchell,
       V. Anisimov, F. W. Aquino, R. Atta-Fynn, J. Autschbach, N. P. Bauman,
     J. C. Becca, D. E. Bernholdt, K. Bhaskaran-Nair, S. Bogatko, P. Borowski,
        J. Boschen, J. Brabec, A. Bruner, E. Cauët, Y. Chen, G. N. Chuev,
      C. J. Cramer, J. Daily, M. J. O. Deegan, T. H. Dunning Jr., M. Dupuis,
   K. G. Dyall, G. I. Fann, S. A. Fischer, A. Fonari, H. Früchtl, L. Gagliardi,
      J. Garza, N. Gawande, S. Ghosh, K. Glaesemann, A. W. Götz, J. Hammond,
       V. Helms, E. D. Hermes, K. Hirao, S. Hirata, M. Jacquelin, L. Jensen,
   B. G. Johnson, H. Jónsson, R. A. Kendall, M. Klemm, R. Kobayashi, V. Konkov,
      S. Krishnamoorthy, M. Krishnan, Z. Lin, R. D. Lins, R. J. Littlefield,
      A. J. Logsdail, K. Lopata, W. Ma, A. V. Marenich, J. Martin del Campo,
   D. Mejia-Rodriguez, J. E. Moore, J. M. Mullin, T. Nakajima, D. R. Nascimento,
    J. A. Nichols, P. J. Nichols, J. Nieplocha, A. Otero-de-la-Roza, B. Palmer,
    A. Panyala, T. Pirojsirikul, B. Peng, R. Peverati, J. Pittner, L. Pollack,
   R. M. Richard, P. Sadayappan, G. C. Schatz, W. A. Shelton, D. W. Silverstein,
   D. M. A. Smith, T. A. Soares, D. Song, M. Swart, H. L. Taylor, G. S. Thomas,
            V. Tipparaju, D. G. Truhlar, K. Tsemekhman, T. Van Voorhis,
     Á. Vázquez-Mayagoitia, P. Verma, O. Villa, A. Vishnu, K. D. Vogiatzis,
        D. Wang, J. H. Weare, M. J. Williamson, T. L. Windus, K. Woliński,
        A. T. Wong, Q. Wu, C. Yang, Q. Yu, M. Zacharias, Z. Zhang, Y. Zhao,
                                and R. J. Harrison
                        "NWChem: Past, present, and future
                         J. Chem. Phys. 152, 184102 (2020)
                               doi:10.1063/5.0004997

                                      AUTHORS
                                      -------
     E. Apra, E. J. Bylaska, N. Govind, K. Kowalski, M. Valiev, W. A. de Jong,
      T. P. Straatsma, H. J. J. van Dam, D. Wang, T. L. Windus, N. P. Bauman,
       A. Panyala, J. Hammond, J. Autschbach, K. Bhaskaran-Nair, J. Brabec,
    K. Lopata, S. A. Fischer, S. Krishnamoorthy, M. Jacquelin, W. Ma, M. Klemm,
       O. Villa, Y. Chen, V. Anisimov, F. Aquino, S. Hirata, M. T. Hackler,
           Eric Hermes, L. Jensen, J. E. Moore, J. C. Becca, V. Konjkov,
            D. Mejia-Rodriguez, T. Risthaus, M. Malagoli, A. Marenich,
   A. Otero-de-la-Roza, J. Mullin, P. Nichols, R. Peverati, J. Pittner, Y. Zhao,
        P.-D. Fan, A. Fonari, M. J. Williamson, R. J. Harrison, J. R. Rehr,
      M. Dupuis, D. Silverstein, D. M. A. Smith, J. Nieplocha, V. Tipparaju,
      M. Krishnan, B. E. Van Kuiken, A. Vazquez-Mayagoitia, M. Swart, Q. Wu,
   T. Van Voorhis, A. A. Auer, M. Nooijen, L. D. Crosby, E. Brown, G. Cisneros,
     G. I. Fann, H. Fruchtl, J. Garza, K. Hirao, R. A. Kendall, J. A. Nichols,
       K. Tsemekhman, K. Wolinski, J. Anchell, D. E. Bernholdt, P. Borowski,
       T. Clark, D. Clerc, H. Dachsel, M. J. O. Deegan, K. Dyall, D. Elwood,
      E. Glendening, M. Gutowski, A. C. Hess, J. Jaffe, B. G. Johnson, J. Ju,
        R. Kobayashi, R. Kutteh, Z. Lin, R. Littlefield, X. Long, B. Meng,
      T. Nakajima, S. Niu, L. Pollack, M. Rosing, K. Glaesemann, G. Sandrone,
      M. Stave, H. Taylor, G. Thomas, J. H. van Lenthe, A. T. Wong, Z. Zhang.

 Total times  cpu:        1.0s     wall:        1.4s
