

 Parallel Execution: Process Information
 ==============================================================================
 Rank   Node Name                              NodeID   MyNodeRank  NodeMaster
    0   adf1                                      0          0          0
    1   adf1                                      0          1         -1
    2   adf1                                      0          2         -1
    3   adf1                                      0          3         -1
    4   adf1                                      0          4         -1
    5   adf1                                      0          5         -1
    6   adf1                                      0          6         -1
    7   adf1                                      0          7         -1
    8   adf1                                      0          8         -1
    9   adf1                                      0          9         -1
   10   adf1                                      0         10         -1
   11   adf1                                      0         11         -1
 ==============================================================================


May use up to 22932MB of RAM as shared memory on node 0

 *******************************************************************************
 *                                                                             *
 *  --------------------------------                                           *
 *   Amsterdam Modeling Suite (AMS)              2020.202                      *
 *  --------------------------------                                           *
 *                                               r90167 2020-12-05             *
 *                                                                             *
 *                                                                             *
 *                              =================                              *
 *                              |               |                              *
 *                              |     A M S     |                              *
 *                              |               |                              *
 *                              =================                              *
 *                                                                             *
 *                                                                             *
 *   Online information and documentation:  https://www.scm.com/support/       *
 *   E-mail:  support@scm.com   info@scm.com                                   *
 *                                                                             *
 *   Scientific publications using AMS results must be properly referenced     *
 *   See the User Manuals (or the web site) for recommended citations          *
 *   The terms and conditions of the End User License Agreement apply to       *
 *   the use of AMS, https://www.scm.com/license-terms/                        *
 *                                                                             *
 **********************  x86_64_linux_intel / intelmpi  ************************
 
 Licensed to: Dr. Miroslav Ilias / Matej Bel University, Department Chemistry, Fac. Natural Sciences / Banska Bystrica / SLOVAKIA
 SCM User ID: u17848
  
 AMS 2020.202  RunTime: Mar22-2021 22:24:38  Nodes: 1  Procs: 12

 AMS jobname: ams
 AMS jobid  : 687189504

 Start   directory: /home/milias/Work/projects/open-collection/theoretical_chemistry/projects/nmr_diplomovky/reference_compounds/tetramethylsilane/ams/b3lyp_tz2p_good/cosmo-benzene/tmp.milias.16755.0.noindex/
 Results directory: /home/milias/Work/projects/open-collection/theoretical_chemistry/projects/nmr_diplomovky/reference_compounds/tetramethylsilane/ams/b3lyp_tz2p_good/cosmo-benzene/TMS.geopt_freq_nmrshield_b3lyp_tz2p_good_cosmo-benzene.results/
 Scratch directory: /tmp/amstmp_ams_kid0.687189504/


 Communication costs MPI_COMM_WORLD:      2.931 usec per message,   0.0273 usec per 8-byte item
 Communication costs for intra-node:      2.651 usec per message,   0.0276 usec per 8-byte item

 RNG seed: -1448384214 1859546438 -1845211742 127181494 -287988714 -1826247120 -124103073 -367835685



                       *********************************************************************
                       *  ADF 2020.202  RunTime: Mar22-2021 22:24:39  Nodes: 1  Procs: 12  *
                       *********************************************************************
  
       ***************************
       *  GEOMETRY OPTIMIZATION  *
       ***************************

Optimization Method                    Quasi Newton
Optimization Coordinates               Delocalized Coordinates
Optimize lattice                       F
 
 ------------------------------------------------------
 Convergence criteria (Hartree,Angstrom)
 ------------------------------------------------------
 Maximum gradient               0.001000000000
 Maximum rms gradient           0.000666666667
 Maximum step allowed           0.010000000000
 Maximum rms step allowed       0.006666666667
 Maximum energy change allowe   0.000170000000
 Maximum stress energy allowe   0.000500000000
 
Initial model Hessian                  Automatic Hessian
 
------------------------------------
Quasi-Newton Optimizer Parameters
------------------------------------
Hessian Update Method                  BFGS
Maximum number of steps                  250
First GDIIS cycle                          0
Maximum GDIIS vectors                      0
Trust radius (bohr)                        0.200000
Trust radius varies                        T
Constraints converged at all steps         T
Use projector                              T
 
 Rigid motions settings for: old optimizer
 Atomic rotations (x,y,z):     T T T
 Atomic translations (x,y,z):  T T T
 Tolerance:                   1.000000000000000E-006
 
--------
Geometry
--------
Atoms
  Index Symbol   x (angstrom)   y (angstrom)   z (angstrom)
      1     Si    -0.00035340     0.00044044     0.00017082       adf.R=1.908
      2      C    -0.92700723    -0.17245052    -1.63067307       adf.R=1.700
      3      C     0.89215753     1.65870112     0.04323321       adf.R=1.700
      4      C     1.25714866    -1.39336272     0.15722137       adf.R=1.700
      5      C    -1.22271570    -0.09244844     1.43030849       adf.R=1.700
      6      H    -1.45606035    -1.12691203    -1.68499410       adf.R=1.350
      7      H    -1.66525096     0.62377361    -1.75239323       adf.R=1.350
      8      H    -0.24261117    -0.12348189    -2.48100822       adf.R=1.350
      9      H     1.60996336     1.74235151    -0.77627427       adf.R=1.350
     10      H     0.18778958     2.48916270    -0.04634773       adf.R=1.350
     11      H     1.44055148     1.78791367     0.97934460       adf.R=1.350
     12      H     1.81274678    -1.32080122     1.09521934       adf.R=1.350
     13      H     0.76870517    -2.37051202     0.13542461       adf.R=1.350
     14      H     1.98130780    -1.36601720    -0.66051084       adf.R=1.350
     15      H    -0.71334828     0.00438554     2.39208996       adf.R=1.350
     16      H    -1.96671540     0.70514244     1.36684154       adf.R=1.350
     17      H    -1.75690787    -1.04558500     1.43204752       adf.R=1.350
 
Total System Charge             0.00000
Bonding info available!
 
 
----------------
ADF Engine Input
----------------
 
 Basis
 Type TZ2P
 Core None
 End
 Save TAPE10
 XC
 Hybrid B3LYP
 End
 Relativity
 Level None
 End
 Solvation
 Surf Delley
 Solv name=Benzene cav0=0.0 cav1=0.0067639
 Charged method=CONJ
 C-Mat POT
 SCF VAR ALL
 CSMRSP
 End
 NumericalQuality Good
 

 Title: *** (NO TITLE) ***

 Using automatic Hessian for delocalized coordinates.
 *** GOStep1 ***

 SOLVATION
-------------------------------------------

  The Delley construction of COSMO surface surface is calculated

       Division Level for Surface Triangles (NDIV)                  3
       Final Division Level for Triangles (NFDIV)                   1
       Radius of the Solvent (RSOL)                           3.28000 angstr
  Dielectric Constant (EPSL)                                  2.30000

       COSMO equation is solved iteratively-               conjugate-gradient

       Maximun of Iterations for Charges (NCIX)                  1000
       Criterion for Charge convergence (CCNV)                1.0E-08

  COSMO charges included variationally in SCF

       COSMO included at every SCF cycle

  Geometry-dependent empirical factor                         0.00000

  C-Matrix calculated in cspmtx

  In cspmtx, C-Matrix calculated using fitted potential

-------------------------------------------



 -------------------------------------------
  COSMO surface
  Area             =          532.425
  Volume           =          996.522
  Number of Points =         1211
 -------------------------------------------



 ======================
 RI Hartree-Fock Scheme
 ======================
  
 Fit Set Quality     : GOOD
 Integration Quality : GOOD
 Threshold Quality   : GOOD
 Response Quality    : DEFAULT
 Is Range Separated  :  F
 
 RIHartreeFock Dependency: number of modified vectors:          13
 cosmo_calcen: 0.5 (esolb+esolc) (Hartrees) =   -0.000830

 Solvation energy (screening term,uncorrected) =     -0.521125 kcal/mol

 Solvation energy (dispersion and cavitation terms) =      0.569998 kcal/mol
 Solvation Energy Contributions (Hartrees)
          esola   esolb+esolc
     0.00083046   -0.00166093
 esol last cycle   -0.00083046
  
 Hartree-Fock exchange energy:   -45.3897360219419     
 cosmo_calcen: 0.5 (esolb+esolc) (Hartrees) =   -0.000830

 Solvation energy (screening term,uncorrected) =     -0.521124 kcal/mol

 Solvation energy (dispersion and cavitation terms) =      0.569998 kcal/mol
 Solvation Energy Contributions (Hartrees)
          esola   esolb+esolc
     0.00083046   -0.00166093
 esol last cycle   -0.00083046
  pauli hf:                             -1.340217254810284        -36.4692          -841.00         -3518.74
  elstat hf:                            -1.055231483448617        -28.7143          -662.17         -2770.51

 Energy gradients wrt nuclear displacements
 ==========================================

     Atom      Cartesian (a.u./angstrom)
                 X         Y         Z
 ----------------------------------------
     1 Si    0.000022 -0.000024  0.000031
     2 C     0.000313  0.000058  0.000573
     3 C    -0.000317 -0.000587 -0.000021
     4 C    -0.000479  0.000516 -0.000073
     5 C     0.000435  0.000038 -0.000513
     6 H    -0.000040 -0.000055 -0.000017
     7 H    -0.000053  0.000044 -0.000016
     8 H     0.000023  0.000005 -0.000067
     9 H     0.000049  0.000024 -0.000048
    10 H    -0.000027  0.000067 -0.000006
    11 H     0.000041  0.000020  0.000048
    12 H     0.000045 -0.000006  0.000053
    13 H    -0.000009 -0.000077 -0.000002
    14 H     0.000059 -0.000013 -0.000047
    15 H     0.000024  0.000005  0.000070
    16 H    -0.000047  0.000042  0.000016
    17 H    -0.000040 -0.000057  0.000019
 ----------------------------------------
 Mulliken charges used for AMS results%charges...
 
----------------------------------------------------------------------
Geometry Convergence after Step   1       (Hartree/Angstrom,Angstrom)
----------------------------------------------------------------------
current energy                               -3.57291470 Hartree
energy change                      -3.57291470     0.00017000    F
constrained gradient max            0.00058726     0.00100000    T
constrained gradient rms            0.00019266     0.00066667    T
gradient max                        0.00058726
gradient rms                        0.00019266
cart. step max                      0.00029247     0.01000000    T
cart. step rms                      0.00015099     0.00666667    T
 
 
--------
Geometry
--------
Atoms
  Index Symbol   x (angstrom)   y (angstrom)   z (angstrom)
      1     Si    -0.00034926     0.00045771     0.00016476       adf.R=1.908
      2      C    -0.92713555    -0.17248033    -1.63094524       adf.R=1.700
      3      C     0.89228915     1.65899360     0.04325891       adf.R=1.700
      4      C     1.25735326    -1.39359531     0.15724533       adf.R=1.700
      5      C    -1.22290171    -0.09246452     1.43054561       adf.R=1.700
      6      H    -1.45620456    -1.12689487    -1.68518177       adf.R=1.350
      7      H    -1.66530017     0.62376394    -1.75267914       adf.R=1.350
      8      H    -0.24270232    -0.12359343    -2.48120380       adf.R=1.350
      9      H     1.61004818     1.74261015    -0.77624205       adf.R=1.350
     10      H     0.18788162     2.48937187    -0.04631176       adf.R=1.350
     11      H     1.44064732     1.78816933     0.97935363       adf.R=1.350
     12      H     1.81296502    -1.32100616     1.09518657       adf.R=1.350
     13      H     0.76882732    -2.37065881     0.13548910       adf.R=1.350
     14      H     1.98139994    -1.36625741    -0.66053305       adf.R=1.350
     15      H    -0.71351131     0.00436602     2.39227147       adf.R=1.350
     16      H    -1.96686834     0.70510500     1.36704465       adf.R=1.350
     17      H    -1.75703859    -1.04558678     1.43223677       adf.R=1.350
 
Total System Charge             0.00000
Bonding info available!
 
 *** GOStep2 ***

 SOLVATION
-------------------------------------------

  The Delley construction of COSMO surface surface is calculated

       Division Level for Surface Triangles (NDIV)                  3
       Final Division Level for Triangles (NFDIV)                   1
       Radius of the Solvent (RSOL)                           3.28000 angstr
  Dielectric Constant (EPSL)                                  2.30000

       COSMO equation is solved iteratively-               conjugate-gradient

       Maximun of Iterations for Charges (NCIX)                  1000
       Criterion for Charge convergence (CCNV)                1.0E-08

  COSMO charges included variationally in SCF

       COSMO included at every SCF cycle

  Geometry-dependent empirical factor                         0.00000

  C-Matrix calculated in cspmtx

  In cspmtx, C-Matrix calculated using fitted potential

-------------------------------------------



 -------------------------------------------
  COSMO surface
  Area             =          532.425
  Volume           =          996.537
  Number of Points =         1211
 -------------------------------------------



 ======================
 RI Hartree-Fock Scheme
 ======================
  
 Fit Set Quality     : GOOD
 Integration Quality : GOOD
 Threshold Quality   : GOOD
 Response Quality    : DEFAULT
 Is Range Separated  :  F
 
 RIHartreeFock Dependency: number of modified vectors:          13
 cosmo_calcen: 0.5 (esolb+esolc) (Hartrees) =   -0.000830

 Solvation energy (screening term,uncorrected) =     -0.521091 kcal/mol

 Solvation energy (dispersion and cavitation terms) =      0.569998 kcal/mol
 Solvation Energy Contributions (Hartrees)
          esola   esolb+esolc
     0.00083041   -0.00166082
 esol last cycle   -0.00083041
  
 Hartree-Fock exchange energy:   -45.3895178276859     
 cosmo_calcen: 0.5 (esolb+esolc) (Hartrees) =   -0.000830

 Solvation energy (screening term,uncorrected) =     -0.521091 kcal/mol

 Solvation energy (dispersion and cavitation terms) =      0.569998 kcal/mol
 Solvation Energy Contributions (Hartrees)
          esola   esolb+esolc
     0.00083041   -0.00166082
 esol last cycle   -0.00083041
  pauli hf:                             -1.336605630790814        -36.3709          -838.73         -3509.26
  elstat hf:                            -1.055080139612029        -28.7102          -662.07         -2770.11

 Energy gradients wrt nuclear displacements
 ==========================================

     Atom      Cartesian (a.u./angstrom)
                 X         Y         Z
 ----------------------------------------
     1 Si    0.000015 -0.000016  0.000016
     2 C     0.000200  0.000037  0.000368
     3 C    -0.000204 -0.000378 -0.000014
     4 C    -0.000310  0.000331 -0.000048
     5 C     0.000283  0.000023 -0.000328
     6 H    -0.000023 -0.000019 -0.000018
     7 H    -0.000028  0.000013 -0.000015
     8 H    -0.000005  0.000002 -0.000035
     9 H     0.000023  0.000021 -0.000017
    10 H     0.000001  0.000036 -0.000001
    11 H     0.000023  0.000020  0.000014
    12 H     0.000027 -0.000014  0.000018
    13 H     0.000011 -0.000037 -0.000001
    14 H     0.000030 -0.000016 -0.000015
    15 H     0.000001  0.000001  0.000036
    16 H    -0.000023  0.000013  0.000021
    17 H    -0.000021 -0.000018  0.000021
 ----------------------------------------
 Mulliken charges used for AMS results%charges...
 
---------------------------------------------------------
Geometry Convergence after Step   2       ** CONVERGED **
---------------------------------------------------------
current energy                               -3.57291537 Hartree
energy change                      -0.00000068     0.00017000    T
constrained gradient max            0.00037743     0.00100000    T
constrained gradient rms            0.00012313     0.00066667    T
gradient max                        0.00037743
gradient rms                        0.00012313
cart. step max                      0.00051518     0.01000000    T
cart. step rms                      0.00024344     0.00666667    T
 
Geometry optimization converged

Optimized geometry:
 
--------
Geometry
--------
Atoms
  Index Symbol   x (angstrom)   y (angstrom)   z (angstrom)
      1     Si    -0.00034926     0.00045771     0.00016476       adf.R=1.908
      2      C    -0.92713555    -0.17248033    -1.63094524       adf.R=1.700
      3      C     0.89228915     1.65899360     0.04325891       adf.R=1.700
      4      C     1.25735326    -1.39359531     0.15724533       adf.R=1.700
      5      C    -1.22290171    -0.09246452     1.43054561       adf.R=1.700
      6      H    -1.45620456    -1.12689487    -1.68518177       adf.R=1.350
      7      H    -1.66530017     0.62376394    -1.75267914       adf.R=1.350
      8      H    -0.24270232    -0.12359343    -2.48120380       adf.R=1.350
      9      H     1.61004818     1.74261015    -0.77624205       adf.R=1.350
     10      H     0.18788162     2.48937187    -0.04631176       adf.R=1.350
     11      H     1.44064732     1.78816933     0.97935363       adf.R=1.350
     12      H     1.81296502    -1.32100616     1.09518657       adf.R=1.350
     13      H     0.76882732    -2.37065881     0.13548910       adf.R=1.350
     14      H     1.98139994    -1.36625741    -0.66053305       adf.R=1.350
     15      H    -0.71351131     0.00436602     2.39227147       adf.R=1.350
     16      H    -1.96686834     0.70510500     1.36704465       adf.R=1.350
     17      H    -1.75703859    -1.04558678     1.43223677       adf.R=1.350
 
Total System Charge             0.00000
Bonding info available!
 
Performing a single point calculation on the final geometry ...

 *** adf ***



 ===========================
 A T T A C H E D   F I L E S
 ===========================
  
 Restart/tmp/amstmp_ams_kid0.687189504/GOStep2.rkf*** GOStep2 ***



 ===============================
 M O D E L   P A R A M E T E R S
 ===============================
  
 DENSITY FUNCTIONAL POTENTIAL (scf)
    Hybrid:                            B3LYP                                   == Not Default ==

 SPIN  (restricted / unrestr.)
    Molecule:                          Restricted                               
    Fragments:                         Restricted                               

 OTHER ASPECTS
    Relativistic Corrections:          ---                                     == Not Default ==

    Nuclear Charge Density Model:      Point Charge Nuclei                      
    Core Treatment:                    Frozen Orbital(s)                        

    Hyperfine or Zeeman Interaction:   ---                                      

 SOLVATION
-------------------------------------------

  The Delley construction of COSMO surface surface is calculated

       Division Level for Surface Triangles (NDIV)                  3
       Final Division Level for Triangles (NFDIV)                   1
       Radius of the Solvent (RSOL)                           3.28000 angstr
  Dielectric Constant (EPSL)                                  2.30000

       COSMO equation is solved iteratively-               conjugate-gradient

       Maximun of Iterations for Charges (NCIX)                  1000
       Criterion for Charge convergence (CCNV)                1.0E-08

  COSMO charges included variationally in SCF

       COSMO included at every SCF cycle

  Geometry-dependent empirical factor                         0.00000

  C-Matrix calculated in cspmtx

  In cspmtx, C-Matrix calculated using fitted potential

-------------------------------------------




 ===============
 G E O M E T R Y  ***  3D  Molecule  ***
 ===============
  

 ATOMS
 =====                            X Y Z                    CHARGE                     RADIUS
                                (Angstrom)             Nucl     +Core       At.Mass (Angstrom)
                       --------------------------    ----------------       ------- ----------
    1  Si             -0.0003    0.0005    0.0002     14.00     14.00       27.9769    1.9080
    2  C              -0.9271   -0.1725   -1.6309      6.00      6.00       12.0000    1.7000
    3  C               0.8923    1.6590    0.0433      6.00      6.00       12.0000    1.7000
    4  C               1.2574   -1.3936    0.1572      6.00      6.00       12.0000    1.7000
    5  C              -1.2229   -0.0925    1.4305      6.00      6.00       12.0000    1.7000
    6  H              -1.4562   -1.1269   -1.6852      1.00      1.00        1.0078    1.3500
    7  H              -1.6653    0.6238   -1.7527      1.00      1.00        1.0078    1.3500
    8  H              -0.2427   -0.1236   -2.4812      1.00      1.00        1.0078    1.3500
    9  H               1.6100    1.7426   -0.7762      1.00      1.00        1.0078    1.3500
   10  H               0.1879    2.4894   -0.0463      1.00      1.00        1.0078    1.3500
   11  H               1.4406    1.7882    0.9794      1.00      1.00        1.0078    1.3500
   12  H               1.8130   -1.3210    1.0952      1.00      1.00        1.0078    1.3500
   13  H               0.7688   -2.3707    0.1355      1.00      1.00        1.0078    1.3500
   14  H               1.9814   -1.3663   -0.6605      1.00      1.00        1.0078    1.3500
   15  H              -0.7135    0.0044    2.3923      1.00      1.00        1.0078    1.3500
   16  H              -1.9669    0.7051    1.3670      1.00      1.00        1.0078    1.3500
   17  H              -1.7570   -1.0456    1.4322      1.00      1.00        1.0078    1.3500


 FRAGMENTS
 =========                                     Atoms in this Fragment     Cart. coord.s (Angstrom)
                                               -------------------------------------------------------
    1  Si                                                1  Si          -0.0003    0.0005    0.0002
    2  C                                                 2  C           -0.9271   -0.1725   -1.6309
    3  C                                                 3  C            0.8923    1.6590    0.0433
    4  C                                                 4  C            1.2574   -1.3936    0.1572
    5  C                                                 5  C           -1.2229   -0.0925    1.4305
    6  H                                                 6  H           -1.4562   -1.1269   -1.6852
    7  H                                                 7  H           -1.6653    0.6238   -1.7527
    8  H                                                 8  H           -0.2427   -0.1236   -2.4812
    9  H                                                 9  H            1.6100    1.7426   -0.7762
   10  H                                                10  H            0.1879    2.4894   -0.0463
   11  H                                                11  H            1.4406    1.7882    0.9794
   12  H                                                12  H            1.8130   -1.3210    1.0952
   13  H                                                13  H            0.7688   -2.3707    0.1355
   14  H                                                14  H            1.9814   -1.3663   -0.6605
   15  H                                                15  H           -0.7135    0.0044    2.3923
   16  H                                                16  H           -1.9669    0.7051    1.3670
   17  H                                                17  H           -1.7570   -1.0456    1.4322


 Interatomic Distance Matrix (Angstrom)
 --------------------------------------

   1)     0.000
   2)     1.884   0.000
   3)     1.884   3.077   0.000
   4)     1.884   3.076   3.076   0.000
   5)     1.884   3.077   3.077   3.077   0.000
   6)     2.496   1.093   4.033   3.291   3.291   0.000
   7)     2.497   1.093   3.292   4.032   3.293   1.764   0.000
   8)     2.496   1.093   3.292   3.290   4.033   1.764   1.764   0.000
   9)     2.496   3.292   1.093   3.291   4.033   4.297   3.596   3.134   0.000
  10)     2.496   3.292   1.093   4.033   3.292   4.297   3.135   3.597   1.764   0.000
  11)     2.496   4.033   1.093   3.291   3.292   4.898   4.297   4.297   1.764   1.764
          0.000
  12)     2.497   4.032   3.292   1.093   3.292   4.296   4.898   4.295   3.596   4.297
          3.134   0.000
  13)     2.496   3.291   4.033   1.093   3.292   3.133   4.296   3.594   4.296   4.898
          4.296   1.764   0.000
  14)     2.496   3.290   3.291   1.093   4.033   3.595   4.296   3.131   3.133   4.296
          3.596   1.764   1.764   0.000
  15)     2.496   4.033   3.292   3.291   1.093   4.296   4.298   4.898   4.296   3.596
          3.133   3.134   3.596   4.297   0.000
  16)     2.496   3.292   3.292   4.033   1.093   3.596   3.135   4.297   4.297   3.134
          3.596   4.297   4.297   4.898   1.764   0.000
  17)     2.496   3.292   4.033   3.291   1.093   3.133   3.597   4.296   4.898   4.297
          4.297   3.596   3.133   4.296   1.764   1.764   0.000

 Min. Distance =    1.0925
 Max. Distance =    4.8980



 =====================================
 S Y M M E T R Y ,   E L E C T R O N S
 =====================================
  
 Symmetry: NOSYM

 Irreducible Representations, including subspecies
 -------------------------------------------------
 A

 Symmetry is NOT used when fitting density


 Configuration of Valence Electrons
 ==================================
 ( determined in the SCF procedure )

 Total:   50

 Net Charge: 0 (Nuclei minus Electrons)

 Aufbau principle for MO occupations will be applied through SCF cycle no.     150
 Thereafter, the program will assign electrons to MOs that are spatially
 similar to the occupied MOs in a "reference" cycle ("KeepOrbitals").
 The reference cycle is always the PREVIOUS cycle: it will evolve with
 the SCF procedure.
1
 ***************************************************************************************************



                                      ****************************************
                                      *  B U I L D : (Fragments, Functions)  *
                                      ****************************************
  



 =======
 S F O s  ***  (Symmetrized Fragment Orbitals)  ***
 =======
  
 SFOs are linear combinations of (valence) Fragment Orbitals (FOs), such that the SFOs transform as the
 irreducible representations of the (molecular) symmetry group. Each SFO is therefore characterized by
 an irrep of the molecule and by a few (or only one) generating FOs.
 The SFOs constitute a symmetry-adapted basis for the Fock matrix. The MO eigenvector coefficients in
 this basis provide a direct interpretation of the MOs in terms of Frontier Orbital Theory.

 The SFOs are combined with auxiliary Core Functions (CFs) to ensure orthogonalization on the (frozen)
 Core Orbitals (COs). The Core-orthogonalized SFOs (CSFOs) constitute the true Fock basis.

 The FOs, and hence also the (C)SFOs are combinations of the elementary basis functions (BAS). The basis
 functions that participate in the description of the SFOs depend on the irrep. The indices of the
 involved functions are printed below for each irrep.
 (The complete list of primitive basis functions is printed in another section)

 Total nr. of (C)SFOs (summation over all irreps) :   270

 NOTE: a (C)SFO that is defined as a combination of more than one FO is usually NOT normalized.



                                       === A ===
 Nr. of SFOs :  270
 Cartesian basis functions that participate in this irrep (total number =   302) :
      1     2     3     4    11    12    13     5     8    14
     17    20     6     9    15    18    21     7    10    16
     19    22    23    24    25    26    27    28    29    30
     31    32    33    34    35    36    37    38    39    40
     41    42    43    44    47    50    45    48    51    46
     49    52    53    54    55    56    57    58    59    60
     61    62    63    64    65    66    67    68    69    70
     71    72    73    74    77    80    75    78    81    76
     79    82    83    84    85    86    87    88    89    90
     91    92    93    94    95    96    97    98    99   100
    101   102   103   104   107   110   105   108   111   106
    109   112   113   114   115   116   117   118   119   120
    121   122   123   124   125   126   127   128   129   130
    131   132   133   134   137   140   135   138   141   136
    139   142   143   144   145   146   147   148   149   150
    151   152   153   154   155   156   157   158   159   160
    161   162   163   164   165   166   167   168   169   170
    171   172   173   174   175   176   177   178   179   180
    181   182   183   184   185   186   187   188   189   190
    191   192   193   194   195   196   197   198   199   200
    201   202   203   204   205   206   207   208   209   210
    211   212   213   214   215   216   217   218   219   220
    221   222   223   224   225   226   227   228   229   230
    231   232   233   234   235   236   237   238   239   240
    241   242   243   244   245   246   247   248   249   250
    251   252   253   254   255   256   257   258   259   260
    261   262   263   264   265   266   267   268   269   270
    271   272   273   274   275   276   277   278   279   280
    281   282   283   284   285   286   287   288   289   290
    291   292   293   294   295   296   297   298   299   300
    301   302

    SFO  (index         Fragment          Generating    Expansion in Fragment Orbitals
  indx  incl.CFs)   Occup   Orb.Energy   FragmentType  Coeff.   Orbital     on Fragment
 --------------------------------------------------------------------------------------
     1       1      2.000     -66.170 au  Si            1.00      1 S               1
                        (   -1800.579 eV)
     2       2      2.000      -5.327 au  Si            1.00      2 S               1
                        (    -144.944 eV)
     3       3      2.000      -0.437 au  Si            1.00      3 S               1
                        (     -11.884 eV)
     4       4       --         0.146 au  Si            1.00      4 S               1
                        (       3.969 eV)
     5       5       --         1.555 au  Si            1.00      5 S               1
                        (      42.317 eV)
     6       6       --         9.629 au  Si            1.00      6 S               1
                        (     262.020 eV)
     7       7       --       151.002 au  Si            1.00      7 S               1
                        (    4108.975 eV)
     8       8      2.000      -3.681 au  Si            1.00      1 P:x             1
                        (    -100.156 eV)
     9       9      0.667      -0.142 au  Si            1.00      2 P:x             1
                        (      -3.870 eV)
    10      10       --         0.079 au  Si            1.00      3 P:x             1
                        (       2.153 eV)
    11      11       --         0.724 au  Si            1.00      4 P:x             1
                        (      19.710 eV)
    12      12       --         8.464 au  Si            1.00      5 P:x             1
                        (     230.305 eV)
    13      13      2.000      -3.681 au  Si            1.00      1 P:y             1
                        (    -100.156 eV)
    14      14      0.667      -0.142 au  Si            1.00      2 P:y             1
                        (      -3.870 eV)
    15      15       --         0.079 au  Si            1.00      3 P:y             1
                        (       2.153 eV)
    16      16       --         0.724 au  Si            1.00      4 P:y             1
                        (      19.710 eV)
    17      17       --         8.464 au  Si            1.00      5 P:y             1
                        (     230.305 eV)
    18      18      2.000      -3.681 au  Si            1.00      1 P:z             1
                        (    -100.156 eV)
    19      19      0.667      -0.142 au  Si            1.00      2 P:z             1
                        (      -3.870 eV)
    20      20       --         0.079 au  Si            1.00      3 P:z             1
                        (       2.153 eV)
    21      21       --         0.724 au  Si            1.00      4 P:z             1
                        (      19.710 eV)
    22      22       --         8.464 au  Si            1.00      5 P:z             1
                        (     230.305 eV)
    23      23       --         0.410 au  Si            1.00      1 D:z2            1
                        (      11.149 eV)
    24      24       --         0.410 au  Si            1.00      1 D:x2-y2         1
                        (      11.149 eV)
    25      25       --         0.410 au  Si            1.00      1 D:xy            1
                        (      11.149 eV)
    26      26       --         0.410 au  Si            1.00      1 D:xz            1
                        (      11.149 eV)
    27      27       --         0.410 au  Si            1.00      1 D:yz            1
                        (      11.149 eV)
    28      28       --         1.101 au  Si            1.00      1 F:z3            1
                        (      29.954 eV)
    29      29       --         1.101 au  Si            1.00      1 F:z             1
                        (      29.954 eV)
    30      30       --         1.101 au  Si            1.00      1 F:xyz           1
                        (      29.954 eV)
    31      31       --         1.101 au  Si            1.00      1 F:z2x           1
                        (      29.954 eV)
    32      32       --         1.101 au  Si            1.00      1 F:z2y           1
                        (      29.954 eV)
    33      33       --         1.101 au  Si            1.00      1 F:x             1
                        (      29.954 eV)
    34      34       --         1.101 au  Si            1.00      1 F:y             1
                        (      29.954 eV)
    35      35      2.000     -10.347 au  C             1.00      1 S               2
                        (    -281.545 eV)
    36      36      2.000      -0.564 au  C             1.00      2 S               2
                        (     -15.345 eV)
    37      37       --         0.402 au  C             1.00      3 S               2
                        (      10.943 eV)
    38      38       --         5.509 au  C             1.00      4 S               2
                        (     149.900 eV)
    39      39       --        50.546 au  C             1.00      5 S               2
                        (    1375.418 eV)
    40      40      0.667      -0.188 au  C             1.00      1 P:x             2
                        (      -5.110 eV)
    41      41       --         0.191 au  C             1.00      2 P:x             2
                        (       5.204 eV)
    42      42       --         2.089 au  C             1.00      3 P:x             2
                        (      56.851 eV)
    43      43      0.667      -0.188 au  C             1.00      1 P:y             2
                        (      -5.110 eV)
    44      44       --         0.191 au  C             1.00      2 P:y             2
                        (       5.204 eV)
    45      45       --         2.089 au  C             1.00      3 P:y             2
                        (      56.851 eV)
    46      46      0.667      -0.188 au  C             1.00      1 P:z             2
                        (      -5.110 eV)
    47      47       --         0.191 au  C             1.00      2 P:z             2
                        (       5.204 eV)
    48      48       --         2.089 au  C             1.00      3 P:z             2
                        (      56.851 eV)
    49      49       --         1.292 au  C             1.00      1 D:z2            2
                        (      35.150 eV)
    50      50       --         1.292 au  C             1.00      1 D:x2-y2         2
                        (      35.150 eV)
    51      51       --         1.292 au  C             1.00      1 D:xy            2
                        (      35.150 eV)
    52      52       --         1.292 au  C             1.00      1 D:xz            2
                        (      35.150 eV)
    53      53       --         1.292 au  C             1.00      1 D:yz            2
                        (      35.150 eV)
    54      54       --         4.084 au  C             1.00      1 F:z3            2
                        (     111.144 eV)
    55      55       --         4.084 au  C             1.00      1 F:z             2
                        (     111.144 eV)
    56      56       --         4.084 au  C             1.00      1 F:xyz           2
                        (     111.144 eV)
    57      57       --         4.084 au  C             1.00      1 F:z2x           2
                        (     111.144 eV)
    58      58       --         4.084 au  C             1.00      1 F:z2y           2
                        (     111.144 eV)
    59      59       --         4.084 au  C             1.00      1 F:x             2
                        (     111.144 eV)
    60      60       --         4.084 au  C             1.00      1 F:y             2
                        (     111.144 eV)
    61      61      2.000     -10.347 au  C             1.00      1 S               3
                        (    -281.545 eV)
    62      62      2.000      -0.564 au  C             1.00      2 S               3
                        (     -15.345 eV)
    63      63       --         0.402 au  C             1.00      3 S               3
                        (      10.943 eV)
    64      64       --         5.509 au  C             1.00      4 S               3
                        (     149.900 eV)
    65      65       --        50.546 au  C             1.00      5 S               3
                        (    1375.418 eV)
    66      66      0.667      -0.188 au  C             1.00      1 P:x             3
                        (      -5.110 eV)
    67      67       --         0.191 au  C             1.00      2 P:x             3
                        (       5.204 eV)
    68      68       --         2.089 au  C             1.00      3 P:x             3
                        (      56.851 eV)
    69      69      0.667      -0.188 au  C             1.00      1 P:y             3
                        (      -5.110 eV)
    70      70       --         0.191 au  C             1.00      2 P:y             3
                        (       5.204 eV)
    71      71       --         2.089 au  C             1.00      3 P:y             3
                        (      56.851 eV)
    72      72      0.667      -0.188 au  C             1.00      1 P:z             3
                        (      -5.110 eV)
    73      73       --         0.191 au  C             1.00      2 P:z             3
                        (       5.204 eV)
    74      74       --         2.089 au  C             1.00      3 P:z             3
                        (      56.851 eV)
    75      75       --         1.292 au  C             1.00      1 D:z2            3
                        (      35.150 eV)
    76      76       --         1.292 au  C             1.00      1 D:x2-y2         3
                        (      35.150 eV)
    77      77       --         1.292 au  C             1.00      1 D:xy            3
                        (      35.150 eV)
    78      78       --         1.292 au  C             1.00      1 D:xz            3
                        (      35.150 eV)
    79      79       --         1.292 au  C             1.00      1 D:yz            3
                        (      35.150 eV)
    80      80       --         4.084 au  C             1.00      1 F:z3            3
                        (     111.144 eV)
    81      81       --         4.084 au  C             1.00      1 F:z             3
                        (     111.144 eV)
    82      82       --         4.084 au  C             1.00      1 F:xyz           3
                        (     111.144 eV)
    83      83       --         4.084 au  C             1.00      1 F:z2x           3
                        (     111.144 eV)
    84      84       --         4.084 au  C             1.00      1 F:z2y           3
                        (     111.144 eV)
    85      85       --         4.084 au  C             1.00      1 F:x             3
                        (     111.144 eV)
    86      86       --         4.084 au  C             1.00      1 F:y             3
                        (     111.144 eV)
    87      87      2.000     -10.347 au  C             1.00      1 S               4
                        (    -281.545 eV)
    88      88      2.000      -0.564 au  C             1.00      2 S               4
                        (     -15.345 eV)
    89      89       --         0.402 au  C             1.00      3 S               4
                        (      10.943 eV)
    90      90       --         5.509 au  C             1.00      4 S               4
                        (     149.900 eV)
    91      91       --        50.546 au  C             1.00      5 S               4
                        (    1375.418 eV)
    92      92      0.667      -0.188 au  C             1.00      1 P:x             4
                        (      -5.110 eV)
    93      93       --         0.191 au  C             1.00      2 P:x             4
                        (       5.204 eV)
    94      94       --         2.089 au  C             1.00      3 P:x             4
                        (      56.851 eV)
    95      95      0.667      -0.188 au  C             1.00      1 P:y             4
                        (      -5.110 eV)
    96      96       --         0.191 au  C             1.00      2 P:y             4
                        (       5.204 eV)
    97      97       --         2.089 au  C             1.00      3 P:y             4
                        (      56.851 eV)
    98      98      0.667      -0.188 au  C             1.00      1 P:z             4
                        (      -5.110 eV)
    99      99       --         0.191 au  C             1.00      2 P:z             4
                        (       5.204 eV)
   100     100       --         2.089 au  C             1.00      3 P:z             4
                        (      56.851 eV)
   101     101       --         1.292 au  C             1.00      1 D:z2            4
                        (      35.150 eV)
   102     102       --         1.292 au  C             1.00      1 D:x2-y2         4
                        (      35.150 eV)
   103     103       --         1.292 au  C             1.00      1 D:xy            4
                        (      35.150 eV)
   104     104       --         1.292 au  C             1.00      1 D:xz            4
                        (      35.150 eV)
   105     105       --         1.292 au  C             1.00      1 D:yz            4
                        (      35.150 eV)
   106     106       --         4.084 au  C             1.00      1 F:z3            4
                        (     111.144 eV)
   107     107       --         4.084 au  C             1.00      1 F:z             4
                        (     111.144 eV)
   108     108       --         4.084 au  C             1.00      1 F:xyz           4
                        (     111.144 eV)
   109     109       --         4.084 au  C             1.00      1 F:z2x           4
                        (     111.144 eV)
   110     110       --         4.084 au  C             1.00      1 F:z2y           4
                        (     111.144 eV)
   111     111       --         4.084 au  C             1.00      1 F:x             4
                        (     111.144 eV)
   112     112       --         4.084 au  C             1.00      1 F:y             4
                        (     111.144 eV)
   113     113      2.000     -10.347 au  C             1.00      1 S               5
                        (    -281.545 eV)
   114     114      2.000      -0.564 au  C             1.00      2 S               5
                        (     -15.345 eV)
   115     115       --         0.402 au  C             1.00      3 S               5
                        (      10.943 eV)
   116     116       --         5.509 au  C             1.00      4 S               5
                        (     149.900 eV)
   117     117       --        50.546 au  C             1.00      5 S               5
                        (    1375.418 eV)
   118     118      0.667      -0.188 au  C             1.00      1 P:x             5
                        (      -5.110 eV)
   119     119       --         0.191 au  C             1.00      2 P:x             5
                        (       5.204 eV)
   120     120       --         2.089 au  C             1.00      3 P:x             5
                        (      56.851 eV)
   121     121      0.667      -0.188 au  C             1.00      1 P:y             5
                        (      -5.110 eV)
   122     122       --         0.191 au  C             1.00      2 P:y             5
                        (       5.204 eV)
   123     123       --         2.089 au  C             1.00      3 P:y             5
                        (      56.851 eV)
   124     124      0.667      -0.188 au  C             1.00      1 P:z             5
                        (      -5.110 eV)
   125     125       --         0.191 au  C             1.00      2 P:z             5
                        (       5.204 eV)
   126     126       --         2.089 au  C             1.00      3 P:z             5
                        (      56.851 eV)
   127     127       --         1.292 au  C             1.00      1 D:z2            5
                        (      35.150 eV)
   128     128       --         1.292 au  C             1.00      1 D:x2-y2         5
                        (      35.150 eV)
   129     129       --         1.292 au  C             1.00      1 D:xy            5
                        (      35.150 eV)
   130     130       --         1.292 au  C             1.00      1 D:xz            5
                        (      35.150 eV)
   131     131       --         1.292 au  C             1.00      1 D:yz            5
                        (      35.150 eV)
   132     132       --         4.084 au  C             1.00      1 F:z3            5
                        (     111.144 eV)
   133     133       --         4.084 au  C             1.00      1 F:z             5
                        (     111.144 eV)
   134     134       --         4.084 au  C             1.00      1 F:xyz           5
                        (     111.144 eV)
   135     135       --         4.084 au  C             1.00      1 F:z2x           5
                        (     111.144 eV)
   136     136       --         4.084 au  C             1.00      1 F:z2y           5
                        (     111.144 eV)
   137     137       --         4.084 au  C             1.00      1 F:x             5
                        (     111.144 eV)
   138     138       --         4.084 au  C             1.00      1 F:y             5
                        (     111.144 eV)
   139     139      1.000      -0.244 au  H             1.00      1 S               6
                        (      -6.641 eV)
   140     140       --         0.104 au  H             1.00      2 S               6
                        (       2.836 eV)
   141     141       --         1.564 au  H             1.00      3 S               6
                        (      42.568 eV)
   142     142       --         0.436 au  H             1.00      1 P:x             6
                        (      11.864 eV)
   143     143       --         0.436 au  H             1.00      1 P:y             6
                        (      11.864 eV)
   144     144       --         0.436 au  H             1.00      1 P:z             6
                        (      11.864 eV)
   145     145       --         2.618 au  H             1.00      1 D:z2            6
                        (      71.229 eV)
   146     146       --         2.618 au  H             1.00      1 D:x2-y2         6
                        (      71.229 eV)
   147     147       --         2.618 au  H             1.00      1 D:xy            6
                        (      71.229 eV)
   148     148       --         2.618 au  H             1.00      1 D:xz            6
                        (      71.229 eV)
   149     149       --         2.618 au  H             1.00      1 D:yz            6
                        (      71.229 eV)
   150     150      1.000      -0.244 au  H             1.00      1 S               7
                        (      -6.641 eV)
   151     151       --         0.104 au  H             1.00      2 S               7
                        (       2.836 eV)
   152     152       --         1.564 au  H             1.00      3 S               7
                        (      42.568 eV)
   153     153       --         0.436 au  H             1.00      1 P:x             7
                        (      11.864 eV)
   154     154       --         0.436 au  H             1.00      1 P:y             7
                        (      11.864 eV)
   155     155       --         0.436 au  H             1.00      1 P:z             7
                        (      11.864 eV)
   156     156       --         2.618 au  H             1.00      1 D:z2            7
                        (      71.229 eV)
   157     157       --         2.618 au  H             1.00      1 D:x2-y2         7
                        (      71.229 eV)
   158     158       --         2.618 au  H             1.00      1 D:xy            7
                        (      71.229 eV)
   159     159       --         2.618 au  H             1.00      1 D:xz            7
                        (      71.229 eV)
   160     160       --         2.618 au  H             1.00      1 D:yz            7
                        (      71.229 eV)
   161     161      1.000      -0.244 au  H             1.00      1 S               8
                        (      -6.641 eV)
   162     162       --         0.104 au  H             1.00      2 S               8
                        (       2.836 eV)
   163     163       --         1.564 au  H             1.00      3 S               8
                        (      42.568 eV)
   164     164       --         0.436 au  H             1.00      1 P:x             8
                        (      11.864 eV)
   165     165       --         0.436 au  H             1.00      1 P:y             8
                        (      11.864 eV)
   166     166       --         0.436 au  H             1.00      1 P:z             8
                        (      11.864 eV)
   167     167       --         2.618 au  H             1.00      1 D:z2            8
                        (      71.229 eV)
   168     168       --         2.618 au  H             1.00      1 D:x2-y2         8
                        (      71.229 eV)
   169     169       --         2.618 au  H             1.00      1 D:xy            8
                        (      71.229 eV)
   170     170       --         2.618 au  H             1.00      1 D:xz            8
                        (      71.229 eV)
   171     171       --         2.618 au  H             1.00      1 D:yz            8
                        (      71.229 eV)
   172     172      1.000      -0.244 au  H             1.00      1 S               9
                        (      -6.641 eV)
   173     173       --         0.104 au  H             1.00      2 S               9
                        (       2.836 eV)
   174     174       --         1.564 au  H             1.00      3 S               9
                        (      42.568 eV)
   175     175       --         0.436 au  H             1.00      1 P:x             9
                        (      11.864 eV)
   176     176       --         0.436 au  H             1.00      1 P:y             9
                        (      11.864 eV)
   177     177       --         0.436 au  H             1.00      1 P:z             9
                        (      11.864 eV)
   178     178       --         2.618 au  H             1.00      1 D:z2            9
                        (      71.229 eV)
   179     179       --         2.618 au  H             1.00      1 D:x2-y2         9
                        (      71.229 eV)
   180     180       --         2.618 au  H             1.00      1 D:xy            9
                        (      71.229 eV)
   181     181       --         2.618 au  H             1.00      1 D:xz            9
                        (      71.229 eV)
   182     182       --         2.618 au  H             1.00      1 D:yz            9
                        (      71.229 eV)
   183     183      1.000      -0.244 au  H             1.00      1 S              10
                        (      -6.641 eV)
   184     184       --         0.104 au  H             1.00      2 S              10
                        (       2.836 eV)
   185     185       --         1.564 au  H             1.00      3 S              10
                        (      42.568 eV)
   186     186       --         0.436 au  H             1.00      1 P:x            10
                        (      11.864 eV)
   187     187       --         0.436 au  H             1.00      1 P:y            10
                        (      11.864 eV)
   188     188       --         0.436 au  H             1.00      1 P:z            10
                        (      11.864 eV)
   189     189       --         2.618 au  H             1.00      1 D:z2           10
                        (      71.229 eV)
   190     190       --         2.618 au  H             1.00      1 D:x2-y2        10
                        (      71.229 eV)
   191     191       --         2.618 au  H             1.00      1 D:xy           10
                        (      71.229 eV)
   192     192       --         2.618 au  H             1.00      1 D:xz           10
                        (      71.229 eV)
   193     193       --         2.618 au  H             1.00      1 D:yz           10
                        (      71.229 eV)
   194     194      1.000      -0.244 au  H             1.00      1 S              11
                        (      -6.641 eV)
   195     195       --         0.104 au  H             1.00      2 S              11
                        (       2.836 eV)
   196     196       --         1.564 au  H             1.00      3 S              11
                        (      42.568 eV)
   197     197       --         0.436 au  H             1.00      1 P:x            11
                        (      11.864 eV)
   198     198       --         0.436 au  H             1.00      1 P:y            11
                        (      11.864 eV)
   199     199       --         0.436 au  H             1.00      1 P:z            11
                        (      11.864 eV)
   200     200       --         2.618 au  H             1.00      1 D:z2           11
                        (      71.229 eV)
   201     201       --         2.618 au  H             1.00      1 D:x2-y2        11
                        (      71.229 eV)
   202     202       --         2.618 au  H             1.00      1 D:xy           11
                        (      71.229 eV)
   203     203       --         2.618 au  H             1.00      1 D:xz           11
                        (      71.229 eV)
   204     204       --         2.618 au  H             1.00      1 D:yz           11
                        (      71.229 eV)
   205     205      1.000      -0.244 au  H             1.00      1 S              12
                        (      -6.641 eV)
   206     206       --         0.104 au  H             1.00      2 S              12
                        (       2.836 eV)
   207     207       --         1.564 au  H             1.00      3 S              12
                        (      42.568 eV)
   208     208       --         0.436 au  H             1.00      1 P:x            12
                        (      11.864 eV)
   209     209       --         0.436 au  H             1.00      1 P:y            12
                        (      11.864 eV)
   210     210       --         0.436 au  H             1.00      1 P:z            12
                        (      11.864 eV)
   211     211       --         2.618 au  H             1.00      1 D:z2           12
                        (      71.229 eV)
   212     212       --         2.618 au  H             1.00      1 D:x2-y2        12
                        (      71.229 eV)
   213     213       --         2.618 au  H             1.00      1 D:xy           12
                        (      71.229 eV)
   214     214       --         2.618 au  H             1.00      1 D:xz           12
                        (      71.229 eV)
   215     215       --         2.618 au  H             1.00      1 D:yz           12
                        (      71.229 eV)
   216     216      1.000      -0.244 au  H             1.00      1 S              13
                        (      -6.641 eV)
   217     217       --         0.104 au  H             1.00      2 S              13
                        (       2.836 eV)
   218     218       --         1.564 au  H             1.00      3 S              13
                        (      42.568 eV)
   219     219       --         0.436 au  H             1.00      1 P:x            13
                        (      11.864 eV)
   220     220       --         0.436 au  H             1.00      1 P:y            13
                        (      11.864 eV)
   221     221       --         0.436 au  H             1.00      1 P:z            13
                        (      11.864 eV)
   222     222       --         2.618 au  H             1.00      1 D:z2           13
                        (      71.229 eV)
   223     223       --         2.618 au  H             1.00      1 D:x2-y2        13
                        (      71.229 eV)
   224     224       --         2.618 au  H             1.00      1 D:xy           13
                        (      71.229 eV)
   225     225       --         2.618 au  H             1.00      1 D:xz           13
                        (      71.229 eV)
   226     226       --         2.618 au  H             1.00      1 D:yz           13
                        (      71.229 eV)
   227     227      1.000      -0.244 au  H             1.00      1 S              14
                        (      -6.641 eV)
   228     228       --         0.104 au  H             1.00      2 S              14
                        (       2.836 eV)
   229     229       --         1.564 au  H             1.00      3 S              14
                        (      42.568 eV)
   230     230       --         0.436 au  H             1.00      1 P:x            14
                        (      11.864 eV)
   231     231       --         0.436 au  H             1.00      1 P:y            14
                        (      11.864 eV)
   232     232       --         0.436 au  H             1.00      1 P:z            14
                        (      11.864 eV)
   233     233       --         2.618 au  H             1.00      1 D:z2           14
                        (      71.229 eV)
   234     234       --         2.618 au  H             1.00      1 D:x2-y2        14
                        (      71.229 eV)
   235     235       --         2.618 au  H             1.00      1 D:xy           14
                        (      71.229 eV)
   236     236       --         2.618 au  H             1.00      1 D:xz           14
                        (      71.229 eV)
   237     237       --         2.618 au  H             1.00      1 D:yz           14
                        (      71.229 eV)
   238     238      1.000      -0.244 au  H             1.00      1 S              15
                        (      -6.641 eV)
   239     239       --         0.104 au  H             1.00      2 S              15
                        (       2.836 eV)
   240     240       --         1.564 au  H             1.00      3 S              15
                        (      42.568 eV)
   241     241       --         0.436 au  H             1.00      1 P:x            15
                        (      11.864 eV)
   242     242       --         0.436 au  H             1.00      1 P:y            15
                        (      11.864 eV)
   243     243       --         0.436 au  H             1.00      1 P:z            15
                        (      11.864 eV)
   244     244       --         2.618 au  H             1.00      1 D:z2           15
                        (      71.229 eV)
   245     245       --         2.618 au  H             1.00      1 D:x2-y2        15
                        (      71.229 eV)
   246     246       --         2.618 au  H             1.00      1 D:xy           15
                        (      71.229 eV)
   247     247       --         2.618 au  H             1.00      1 D:xz           15
                        (      71.229 eV)
   248     248       --         2.618 au  H             1.00      1 D:yz           15
                        (      71.229 eV)
   249     249      1.000      -0.244 au  H             1.00      1 S              16
                        (      -6.641 eV)
   250     250       --         0.104 au  H             1.00      2 S              16
                        (       2.836 eV)
   251     251       --         1.564 au  H             1.00      3 S              16
                        (      42.568 eV)
   252     252       --         0.436 au  H             1.00      1 P:x            16
                        (      11.864 eV)
   253     253       --         0.436 au  H             1.00      1 P:y            16
                        (      11.864 eV)
   254     254       --         0.436 au  H             1.00      1 P:z            16
                        (      11.864 eV)
   255     255       --         2.618 au  H             1.00      1 D:z2           16
                        (      71.229 eV)
   256     256       --         2.618 au  H             1.00      1 D:x2-y2        16
                        (      71.229 eV)
   257     257       --         2.618 au  H             1.00      1 D:xy           16
                        (      71.229 eV)
   258     258       --         2.618 au  H             1.00      1 D:xz           16
                        (      71.229 eV)
   259     259       --         2.618 au  H             1.00      1 D:yz           16
                        (      71.229 eV)
   260     260      1.000      -0.244 au  H             1.00      1 S              17
                        (      -6.641 eV)
   261     261       --         0.104 au  H             1.00      2 S              17
                        (       2.836 eV)
   262     262       --         1.564 au  H             1.00      3 S              17
                        (      42.568 eV)
   263     263       --         0.436 au  H             1.00      1 P:x            17
                        (      11.864 eV)
   264     264       --         0.436 au  H             1.00      1 P:y            17
                        (      11.864 eV)
   265     265       --         0.436 au  H             1.00      1 P:z            17
                        (      11.864 eV)
   266     266       --         2.618 au  H             1.00      1 D:z2           17
                        (      71.229 eV)
   267     267       --         2.618 au  H             1.00      1 D:x2-y2        17
                        (      71.229 eV)
   268     268       --         2.618 au  H             1.00      1 D:xy           17
                        (      71.229 eV)
   269     269       --         2.618 au  H             1.00      1 D:xz           17
                        (      71.229 eV)
   270     270       --         2.618 au  H             1.00      1 D:yz           17
                        (      71.229 eV)



 ================================
 (Slater-type)  F U N C T I O N S  ***  (Basis and Fit)  ***
 ================================
  

 Atom Type    1  (Si)
 ==============

 Valence Basis Sets:  14
 -----------------------
   1 S   17.050000
   1 S   12.450000
   2 S    5.150000
   2 S    3.600000
   2 P    6.850000
   2 P    3.650000
   3 S    2.950000
   3 S    1.850000
   3 S    1.200000
   3 P    2.000000
   3 P    1.200000
   3 P    0.750000
   3 D    1.750000
   4 F    1.900000

 Charge Fitting Sets (for the computation of the Coulomb Potential):  30
 -----------------------------------------------------------------------
   1 S   34.100000
   1 S   20.150000
   2 S   22.060000
   2 S   14.690000
   3 S   14.370000
   3 S   10.190000
   3 S    7.230000
   4 S    6.780000
   4 S    5.010000
   4 S    3.700000
   5 S    3.410000
   5 S    2.590000
   5 S    1.970000
   5 S    1.500000
   2 P   23.900000
   3 P   17.130000
   4 P   12.310000
   4 P    7.080000
   5 P    5.140000
   5 P    3.120000
   5 P    1.890000
   3 D   18.400000
   4 D   12.380000
   4 D    6.680000
   5 D    4.570000
   5 D    2.620000
   5 D    1.500000
   4 F    5.000000
   4 F    3.000000
   5 G    3.880000

 Atom Type    2  (C)
 ==============

 Valence Basis Sets:  10
 -----------------------
   1 S    7.680000
   1 S    5.000000
   2 S    1.280000
   2 S    2.100000
   2 S    4.600000
   2 P    0.820000
   2 P    1.480000
   2 P    2.940000
   3 D    2.200000
   4 F    3.300000

 Charge Fitting Sets (for the computation of the Coulomb Potential):  22
 -----------------------------------------------------------------------
   1 S   15.360000
   2 S   17.530000
   2 S   12.070000
   2 S    8.310000
   2 S    5.730000
   3 S    5.780000
   3 S    4.220000
   3 S    3.080000
   3 S    2.250000
   3 S    1.640000
   2 P    9.880000
   2 P    5.800000
   3 P    5.050000
   3 P    3.230000
   3 P    2.060000
   3 D    7.200000
   3 D    4.400000
   3 D    2.690000
   3 D    1.640000
   4 F    5.400000
   4 F    3.550000
   5 G    4.500000

 Atom Type    3  (H)
 ==============

 Valence Basis Sets:   5
 -----------------------
   1 S    0.690000
   1 S    0.920000
   1 S    1.580000
   2 P    1.250000
   3 D    2.500000

 Charge Fitting Sets (for the computation of the Coulomb Potential):  11
 -----------------------------------------------------------------------
   1 S    3.160000
   1 S    2.090000
   1 S    1.380000
   2 S    1.500000
   2 P    4.000000
   2 P    2.650000
   2 P    1.750000
   3 D    4.000000
   3 D    2.500000
   4 F    3.000000
   5 G    4.000000


 BAS: List of all Elementary Cartesian Basis Functions
 =====================================================

 The numbering in the list below (to the right of the function characteristics) is referred
 to in print-outs of MO eigenvectors and Mulliken populations in the BAS representation
 (as contrasted to the SFO representation).

 Notes:
 1. The functions are characterized by a polynomial prefactor (powers of x,y,z and r) and
    an exponential decay factor alpha.
 2. Since the basis sets are specific for an atom TYPE, the individual functions occur on
    all atoms of that type.
 3. The word 'Core' in the left margin signals that it is a Core Function (CF) : not a
    degree of freedom in the valence set, but only used to ensure orthogonalization of
    the other valence basis functions on the frozen Core Orbitals.


 (power of) X  Y  Z  R     Alpha  on Atom
            ==========     =====     ==========

 Si                                   1
                                  ---------------------------------------------------------------------------
            0  0  0  0    17.050      1
            0  0  0  0    12.450      2
            0  0  0  1     5.150      3
            0  0  0  1     3.600      4
            1  0  0  0     6.850      5
            0  1  0  0     6.850      6
            0  0  1  0     6.850      7
            1  0  0  0     3.650      8
            0  1  0  0     3.650      9
            0  0  1  0     3.650     10
            0  0  0  2     2.950     11
            0  0  0  2     1.850     12
            0  0  0  2     1.200     13
            1  0  0  1     2.000     14
            0  1  0  1     2.000     15
            0  0  1  1     2.000     16
            1  0  0  1     1.200     17
            0  1  0  1     1.200     18
            0  0  1  1     1.200     19
            1  0  0  1     0.750     20
            0  1  0  1     0.750     21
            0  0  1  1     0.750     22
            2  0  0  0     1.750     23
            1  1  0  0     1.750     24
            1  0  1  0     1.750     25
            0  2  0  0     1.750     26
            0  1  1  0     1.750     27
            0  0  2  0     1.750     28
            3  0  0  0     1.900     29
            2  1  0  0     1.900     30
            2  0  1  0     1.900     31
            1  2  0  0     1.900     32
            1  1  1  0     1.900     33
            1  0  2  0     1.900     34
            0  3  0  0     1.900     35
            0  2  1  0     1.900     36
            0  1  2  0     1.900     37
            0  0  3  0     1.900     38

 C                                    2    3    4    5
                                  ---------------------------------------------------------------------------
            0  0  0  0     7.680     39   69   99  129
            0  0  0  0     5.000     40   70  100  130
            0  0  0  1     1.280     41   71  101  131
            0  0  0  1     2.100     42   72  102  132
            0  0  0  1     4.600     43   73  103  133
            1  0  0  0     0.820     44   74  104  134
            0  1  0  0     0.820     45   75  105  135
            0  0  1  0     0.820     46   76  106  136
            1  0  0  0     1.480     47   77  107  137
            0  1  0  0     1.480     48   78  108  138
            0  0  1  0     1.480     49   79  109  139
            1  0  0  0     2.940     50   80  110  140
            0  1  0  0     2.940     51   81  111  141
            0  0  1  0     2.940     52   82  112  142
            2  0  0  0     2.200     53   83  113  143
            1  1  0  0     2.200     54   84  114  144
            1  0  1  0     2.200     55   85  115  145
            0  2  0  0     2.200     56   86  116  146
            0  1  1  0     2.200     57   87  117  147
            0  0  2  0     2.200     58   88  118  148
            3  0  0  0     3.300     59   89  119  149
            2  1  0  0     3.300     60   90  120  150
            2  0  1  0     3.300     61   91  121  151
            1  2  0  0     3.300     62   92  122  152
            1  1  1  0     3.300     63   93  123  153
            1  0  2  0     3.300     64   94  124  154
            0  3  0  0     3.300     65   95  125  155
            0  2  1  0     3.300     66   96  126  156
            0  1  2  0     3.300     67   97  127  157
            0  0  3  0     3.300     68   98  128  158

 H                                    6    7    8    9   10   11   12   13   14   15   16   17
                                  ---------------------------------------------------------------------------
            0  0  0  0     0.690    159  171  183  195  207  219  231  243  255  267  279  291
            0  0  0  0     0.920    160  172  184  196  208  220  232  244  256  268  280  292
            0  0  0  0     1.580    161  173  185  197  209  221  233  245  257  269  281  293
            1  0  0  0     1.250    162  174  186  198  210  222  234  246  258  270  282  294
            0  1  0  0     1.250    163  175  187  199  211  223  235  247  259  271  283  295
            0  0  1  0     1.250    164  176  188  200  212  224  236  248  260  272  284  296
            2  0  0  0     2.500    165  177  189  201  213  225  237  249  261  273  285  297
            1  1  0  0     2.500    166  178  190  202  214  226  238  250  262  274  286  298
            1  0  1  0     2.500    167  179  191  203  215  227  239  251  263  275  287  299
            0  2  0  0     2.500    168  180  192  204  216  228  240  252  264  276  288  300
            0  1  1  0     2.500    169  181  193  205  217  229  241  253  265  277  289  301
            0  0  2  0     2.500    170  182  194  206  218  230  242  254  266  278  290  302

 Total number of charge fitting functions (nprimf)      1042
 Total number of Cartesian basis functions (naos)        302
 Total number of Cartesian core functions  (ncos)          0

1
 ***************************************************************************************************



                                              ***********************
                                              *  T E C H N I C A L  *
                                              ***********************
  



 =============================================================
 P A R A L L E L I Z A T I O N  and  V E C T O R I Z A T I O N
 =============================================================
  
 Nr of parallel processes:                               12
 Maximum vector length in NumInt loops:                 128



 =====================
 S C F   U P D A T E S
 =====================
  
 Max. nr. of cycles:                               300
 Convergence criterion:                              0.0000010000
   secondary criterion:                              0.0010000000

 Mix parameter (when DIIS does not apply):           0.2000000000
 Mixed ADIIS+SDIIS will be used                  
    Max number of expansion vectors:                10
    Pure ADIIS when Max([F,P]) is above              0.1000000000
    Pure SDIIS when Max([F,P]) is below              0.0010000000
 Automatic ElectronSmearing (in case of problematic SCF convergence) disabled



 =================
 P R E C I S I O N  ***  (General: NumInt, NeglectFunctionTails, ...)  ***
 =================
  

 NumInt:           Target precision:                 6.0000000000
 -------           Initial precision:                6.0000000000
                   Min. precision (optimization):    6.0000000000

 Neglect Functions:          Basis functions:        0.1000000000E-07
 ------------------          Fit functions:          0.1000000000E-07



 ===========================
 L I N E A R   S C A L I N G
 ===========================
  

 Cut-off radii density fit:                        0.1000000000E-09
 Overlap cut-off criterion AO matrix elements:     0.1000000000E-07
 Cut-offs for Coulomb potential and fitted density:0.1000000000E-09
 Cut-off criterion for Coulomb multipole terms:    0.1000000000E-09
 Progressive Convergence parameter:                 0.000000000    

 Number of elements of the density matrix on this node (used, total):      4251     45753



 ===========================================
 Numerical Integration : Fuzzy Cells (Becke)
 ===========================================
  
 Becke grid quality: GOOD           
  
 Lebedev angular grid order:             min:  11 max:  35
 Nr. of radial points:                   min:  54 max:  72

 Total nr. of points:     212096
 Nr. of blocks:             1657
 Block length:               128
 Nr. of dummy points:          0


 Test of Precision of the Numerical Integration Grid
 ===================================================

 Integral of the Total Core Density:                   0.00000000000000


 -------------------------------------------
  COSMO surface
  Area             =          532.425
  Volume           =          996.537
  Number of Points =         1211
 -------------------------------------------



 ========================
 Density Fitting (zlmFit)
 ========================
  
 ZlmFit Fit Quality: GOOD           
  
 Max L-expansion:                        min:   8 max:  10
 Nr. of radial interpolation points:     min:  78 max: 114



 ======================
 RI Hartree-Fock Scheme
 ======================
  
 Fit Set Quality     : GOOD
 Integration Quality : GOOD
 Threshold Quality   : GOOD
 Response Quality    : DEFAULT
 Is Range Separated  :  F
 
 RIHartreeFock Dependency: number of modified vectors:          13



 =====
 S C F  ***  ScaSCF  ***
 =====
  
 Initial density matrix is taken from previous geometry

 CYCLE    1
  ***********************************************************
  ** : orbital data taken from :/tmp/amstmp_ams_kid0.687189504/GOStep2.rkf
  ***********************************************************
 SCF Error: norm([F,P])=      0.007597113943, max([F,P])=      0.000909636760
 orbitals (Q,E):
 ---------------
 A :16...35          ( 2.00    -0.4115)  ( 2.00    -0.4114)  ( 2.00    -0.3962)  ( 2.00    -0.3962)
                     ( 2.00    -0.3784)  ( 2.00    -0.3784)  ( 2.00    -0.3783)  ( 2.00    -0.2958)
                     ( 2.00    -0.2957)  ( 2.00    -0.2957)  ( 0.00     0.0020)  ( 0.00     0.0402)
                     ( 0.00     0.0402)  ( 0.00     0.0402)  ( 0.00     0.0627)  ( 0.00     0.0627)
                     ( 0.00     0.0627)  ( 0.00     0.0972)  ( 0.00     0.0973)  ( 0.00     0.1215)

 CYCLE    2
  SDIIS (wt  0.000):  0.5772  0.4228
 A-DIIS (wt  1.000):  0.6071  0.3929
  DIIS coefficients:  0.6071  0.3929
 SCF Error: norm([F,P])=      0.010243194704, max([F,P])=      0.001011399041
 orbitals (Q,E):
 ---------------
 A :16...26          ( 2.00    -0.4108)  ( 2.00    -0.4108)  ( 2.00    -0.3957)  ( 2.00    -0.3957)
                     ( 2.00    -0.3778)  ( 2.00    -0.3778)  ( 2.00    -0.3778)  ( 2.00    -0.2951)
                     ( 2.00    -0.2951)  ( 2.00    -0.2951)  ( 0.00     0.0030)

 CYCLE    3
  SDIIS (wt  0.000):  0.4027  0.0933  0.5039
 A-DIIS (wt  1.000):  0.2917  0.0000  0.7083
  DIIS coefficients:  0.2917  0.0000  0.7083
 SCF Error: norm([F,P])=      0.004390657948, max([F,P])=      0.000539018807
 orbitals (Q,E):
 ---------------
 A :16...26          ( 2.00    -0.4102)  ( 2.00    -0.4102)  ( 2.00    -0.3951)  ( 2.00    -0.3950)
                     ( 2.00    -0.3772)  ( 2.00    -0.3772)  ( 2.00    -0.3772)  ( 2.00    -0.2946)
                     ( 2.00    -0.2946)  ( 2.00    -0.2946)  ( 0.00     0.0038)

 CYCLE    4
  SDIIS (wt  1.000): -0.1437 -0.4334  1.5771
  DIIS coefficients: -0.1437 -0.4334  1.5771
[...]
                              -0.544     0.498     0.676
                        -----------------------------------
 
================================================================================
 
 
===  TOTAL NMR SHIELDING TENSOR (ppm)
 
                        ***********************************
                        CARTESIAN AXIS REPRESENTATION

                        ==== total shielding tensor
                        -----------------------------------
                              33.703    -1.707    -4.383
                              -1.707    29.204     0.488
                              -4.383     0.488    32.193
                        -----------------------------------
                                  isotropic =     31.700

                        ***********************************
                        -----------------------------------
                        PRINCIPAL AXIS REPRESENTATION

                        ==== Principal components:

                              27.956    29.438    37.706
 
                        ==== Principal Axis System:

                               0.591    -0.268     0.761
                               0.597     0.780    -0.188
                               0.543    -0.565    -0.621
                        -----------------------------------
################################################################################
********************************************************************************
****  N U C L E U S : H(15)
 
 ADF-GUI atom: H(15)
 Internal NMR numbering of atoms: H(15)
 
 
================================================================================
 
 
===  PARAMAGNETIC NMR SHIELDING TENSORS (ppm)
 
    ===     paramagnetic b^(1) tensor       ===     paramagnetic u^(1) tensor
    -----------------------------------     -----------------------------------
           0.000     0.000     0.000               8.679     0.138    -2.396
           0.000     0.000     0.000               0.138     6.658    -1.187
           0.000     0.000     0.000              -2.396    -1.187   -17.388
    -----------------------------------     -----------------------------------
              isotropic =      0.000                  isotropic =     -0.683

    ===     paramagnetic s^(1) tensor       ===     paramagnetic gauge tensor
    -----------------------------------     -----------------------------------
          -7.708    -0.272     2.102               1.680    -0.004    -0.142
          -0.272    -4.765     1.226              -0.004     1.665    -0.065
           2.102     1.226    21.278              -0.142    -0.065     0.368
    -----------------------------------     -----------------------------------
              isotropic =      2.935                  isotropic =      1.237

                        ***********************************
                        CARTESIAN AXIS REPRESENTATION

                        ==== total paramagnetic tensor
                        -----------------------------------
                               2.650    -0.138    -0.436
                              -0.138     3.558    -0.026
                              -0.436    -0.026     4.259
                        -----------------------------------
                                  isotropic =      3.489

                        ***********************************
                        -----------------------------------
                        PRINCIPAL AXIS REPRESENTATION

                        ==== Principal components:

                               2.521     3.577     4.369
 
                        ==== Principal Axis System:

                              -0.961     0.128    -0.247
                              -0.134    -0.991     0.011
                              -0.243     0.044     0.969
                        -----------------------------------
 
================================================================================
 
 
===  DIAMAGNETIC NMR SHIELDING TENSORS (ppm)
 
    ===       diamagnetic core tensor       ===    diamagnetic valence tensor
    -----------------------------------     -----------------------------------
           0.000     0.000     0.000              27.167     0.416     2.175
           0.000     0.000     0.000               0.416    24.435     0.584
           0.000     0.000     0.000               2.175     0.584    33.019
    -----------------------------------     -----------------------------------
              isotropic =      0.000                  isotropic =     28.207

                        ***********************************
                        CARTESIAN AXIS REPRESENTATION

                        ==== total diamagnetic tensor
                        -----------------------------------
                              27.167     0.416     2.175
                               0.416    24.435     0.584
                               2.175     0.584    33.019
                        -----------------------------------
                                  isotropic =     28.207

                        ***********************************
                        -----------------------------------
                        PRINCIPAL AXIS REPRESENTATION

                        ==== Principal components:

                              24.363    26.468    33.789
 
                        ==== Principal Axis System:

                               0.119    -0.942     0.315
                              -0.992    -0.100     0.073
                               0.037     0.322     0.946
                        -----------------------------------
 
================================================================================
 
 
===  TOTAL NMR SHIELDING TENSOR (ppm)
 
                        ***********************************
                        CARTESIAN AXIS REPRESENTATION

                        ==== total shielding tensor
                        -----------------------------------
                              29.817     0.278     1.738
                               0.278    27.993     0.558
                               1.738     0.558    37.277
                        -----------------------------------
                                  isotropic =     31.696

                        ***********************************
                        -----------------------------------
                        PRINCIPAL AXIS REPRESENTATION

                        ==== Principal components:

                              27.940    29.447    37.700
 
                        ==== Principal Axis System:

                               0.111    -0.970     0.217
                              -0.993    -0.100     0.062
                               0.039     0.222     0.974
                        -----------------------------------
################################################################################
********************************************************************************
****  N U C L E U S : H(16)
 
 ADF-GUI atom: H(16)
 Internal NMR numbering of atoms: H(16)
 
 
================================================================================
 
 
===  PARAMAGNETIC NMR SHIELDING TENSORS (ppm)
 
    ===     paramagnetic b^(1) tensor       ===     paramagnetic u^(1) tensor
    -----------------------------------     -----------------------------------
           0.000     0.000     0.000              -8.646    10.684     4.994
           0.000     0.000     0.000              10.684     0.295    -4.615
           0.000     0.000     0.000               4.994    -4.615     6.294
    -----------------------------------     -----------------------------------
              isotropic =      0.000                  isotropic =     -0.686

    ===     paramagnetic s^(1) tensor       ===     paramagnetic gauge tensor
    -----------------------------------     -----------------------------------
          11.869   -11.359    -5.688               0.841     0.577     0.266
         -11.359     1.498     5.471               0.577     1.275    -0.200
          -5.688     5.471    -4.591               0.266    -0.200     1.598
    -----------------------------------     -----------------------------------
              isotropic =      2.925                  isotropic =      1.238

                        ***********************************
                        CARTESIAN AXIS REPRESENTATION

                        ==== total paramagnetic tensor
                        -----------------------------------
                               4.064    -0.098    -0.428
                              -0.098     3.068     0.656
                              -0.428     0.656     3.301
                        -----------------------------------
                                  isotropic =      3.477

                        ***********************************
                        -----------------------------------
                        PRINCIPAL AXIS REPRESENTATION

                        ==== Principal components:

                               2.490     3.566     4.376
 
                        ==== Principal Axis System:

                               0.135     0.585     0.799
                              -0.734     0.601    -0.316
                               0.666     0.544    -0.511
                        -----------------------------------
 
================================================================================
 
 
===  DIAMAGNETIC NMR SHIELDING TENSORS (ppm)
 
    ===       diamagnetic core tensor       ===    diamagnetic valence tensor
    -----------------------------------     -----------------------------------
           0.000     0.000     0.000              29.775    -4.357    -1.115
           0.000     0.000     0.000              -4.357    28.960    -0.288
           0.000     0.000     0.000              -1.115    -0.288    25.893
    -----------------------------------     -----------------------------------
              isotropic =      0.000                  isotropic =     28.209

                        ***********************************
                        CARTESIAN AXIS REPRESENTATION

                        ==== total diamagnetic tensor
                        -----------------------------------
                              29.775    -4.357    -1.115
                              -4.357    28.960    -0.288
                              -1.115    -0.288    25.893
                        -----------------------------------
                                  isotropic =     28.209

                        ***********************************
                        -----------------------------------
                        PRINCIPAL AXIS REPRESENTATION

                        ==== Principal components:

                              24.365    26.468    33.794
 
                        ==== Principal Axis System:

                              -0.591    -0.314     0.743
                              -0.595    -0.452    -0.665
                              -0.544     0.835    -0.081
                        -----------------------------------
 
================================================================================
 
 
===  TOTAL NMR SHIELDING TENSOR (ppm)
 
                        ***********************************
                        CARTESIAN AXIS REPRESENTATION

                        ==== total shielding tensor
                        -----------------------------------
                              33.839    -4.455    -1.543
                              -4.455    32.028     0.368
                              -1.543     0.368    29.194
                        -----------------------------------
                                  isotropic =     31.687

                        ***********************************
                        -----------------------------------
                        PRINCIPAL AXIS REPRESENTATION

                        ==== Principal components:

                              27.931    29.409    37.720
 
                        ==== Principal Axis System:

                               0.590    -0.239     0.771
                               0.592    -0.521    -0.614
                               0.549     0.819    -0.166
                        -----------------------------------
################################################################################
********************************************************************************
****  N U C L E U S : H(17)
 
 ADF-GUI atom: H(17)
 Internal NMR numbering of atoms: H(17)
 
 
================================================================================
 
 
===  PARAMAGNETIC NMR SHIELDING TENSORS (ppm)
 
    ===     paramagnetic b^(1) tensor       ===     paramagnetic u^(1) tensor
    -----------------------------------     -----------------------------------
           0.000     0.000     0.000              -3.317   -11.347     4.583
           0.000     0.000     0.000             -11.347    -4.178     6.311
           0.000     0.000     0.000               4.583     6.311     5.619
    -----------------------------------     -----------------------------------
              isotropic =      0.000                  isotropic =     -0.625

    ===     paramagnetic s^(1) tensor       ===     paramagnetic gauge tensor
    -----------------------------------     -----------------------------------
           6.174    12.150    -5.024               1.127    -0.599     0.222
          12.150     6.344    -7.361              -0.599     1.013     0.308
          -5.024    -7.361    -3.560               0.222     0.308     1.509
    -----------------------------------     -----------------------------------
              isotropic =      2.986                  isotropic =      1.216

                        ***********************************
                        CARTESIAN AXIS REPRESENTATION

                        ==== total paramagnetic tensor
                        -----------------------------------
                               3.983     0.204    -0.219
                               0.204     3.179    -0.741
                              -0.219    -0.741     3.568
                        -----------------------------------
                                  isotropic =      3.577

                        ***********************************
                        -----------------------------------
                        PRINCIPAL AXIS REPRESENTATION

                        ==== Principal components:

                               2.607     3.754     4.370
 
                        ==== Principal Axis System:

                               0.021     0.791    -0.611
                              -0.794    -0.358    -0.491
                              -0.608     0.495     0.621
                        -----------------------------------
 
================================================================================
 
 
===  DIAMAGNETIC NMR SHIELDING TENSORS (ppm)
 
    ===       diamagnetic core tensor       ===    diamagnetic valence tensor
    -----------------------------------     -----------------------------------
           0.000     0.000     0.000              27.749     3.959    -1.434
           0.000     0.000     0.000               3.959    30.983    -0.318
           0.000     0.000     0.000              -1.434    -0.318    25.891
    -----------------------------------     -----------------------------------
              isotropic =      0.000                  isotropic =     28.208

                        ***********************************
                        CARTESIAN AXIS REPRESENTATION

                        ==== total diamagnetic tensor
                        -----------------------------------
                              27.749     3.959    -1.434
                               3.959    30.983    -0.318
                              -1.434    -0.318    25.891
                        -----------------------------------
                                  isotropic =     28.208

                        ***********************************
                        -----------------------------------
                        PRINCIPAL AXIS REPRESENTATION

                        ==== Principal components:

                              24.361    26.474    33.788
 
                        ==== Principal Axis System:

                              -0.710    -0.420    -0.566
                               0.396     0.426    -0.814
                              -0.583     0.801     0.136
                        -----------------------------------
 
================================================================================
 
 
===  TOTAL NMR SHIELDING TENSOR (ppm)
 
                        ***********************************
                        CARTESIAN AXIS REPRESENTATION

                        ==== total shielding tensor
                        -----------------------------------
                              31.732     4.163    -1.653
                               4.163    34.162    -1.060
                              -1.653    -1.060    29.459
                        -----------------------------------
                                  isotropic =     31.784

                        ***********************************
                        -----------------------------------
                        PRINCIPAL AXIS REPRESENTATION

                        ==== Principal components:

                              28.122    29.534    37.697
 
                        ==== Principal Axis System:

                               0.717    -0.357    -0.599
                              -0.393     0.502    -0.771
                               0.575     0.788     0.219
                        -----------------------------------
 *******************************************************************************

                             N M R   E X I T
 NORMAL TERMINATION



 =================
 Timing Statistics
 =================
  
 Total Used :                     CPU=      164.33      System=        3.43     Elapsed=      175.31

 Calls  Section                     ( Mean, Percentage )
 ---------------------------------------------------------------------------------------------------
     3  ><      ................      0.00    0.00             0.00    0.03             0.00    0.01
     1  INIT    ................      0.58    0.35             0.03    0.93             0.61    0.35
     1  RDEIGX  ................     40.24   24.48             0.66   19.29            42.27   24.11
     1  AOF1K   ................      2.97    1.81             0.03    0.93             3.17    1.81
    16  AOPKK   ................      3.29   32.05             0.15   70.12             3.64   33.18
    16  XSIGP   ................      0.02    0.17             0.00    0.41             0.02    0.18
    16  AODKKK  ................      4.22   41.09             0.02    7.82             4.42   40.31
    16  XDV     ................      0.00    0.04             0.00    0.21             0.01    0.05
    16  XSIGD   ................      0.00    0.00             0.00    0.00             0.00    0.00
     1  EXIT PROCEDURE .........      0.00    0.00             0.01    0.26             0.01    0.01


 Currently Open Files (EXIT00)
 ====================

 Unit    Access Format  Status   Type       Ident (file)
 -------------------------------------------------------
   3      SEQ    FORM   TRANSP  NORMAL      LOGFILE
                                          ( /home/milias/Work/projects/open-collection/theoretical_chemistry/projects/nmr_diplomovky/reference_compounds/tetramethylsilane/ams/b3lyp_tz2p_good/cosmo-benzene/TMS.geopt_freq_nmrshield_b3lyp_tz2p_good_cosmo-benzene.logfile )
