
     Program PWSCF v.7.5 starts on 19Sep2025 at 13:15:47 
        Git branch: dftd4
        Last git commit: 234d1ec8279940b25d9bc7437067330cd0755cf9
        Last git commit date: Fri Jul 18 14:39:03 2025 +0300
        Last git commit subject: Merge branch 'develop' of gitlab.com:miro.ilias/q-

     This program is part of the open-source Quantum ESPRESSO suite
     for quantum simulation of materials; please cite
         "P. Giannozzi et al., J. Phys.:Condens. Matter 21 395502 (2009);
         "P. Giannozzi et al., J. Phys.:Condens. Matter 29 465901 (2017);
         "P. Giannozzi et al., J. Chem. Phys. 152 154105 (2020);
          URL http://www.quantum-espresso.org", 
     in publications or presentations arising from this work. More details at
     http://www.quantum-espresso.org/quote

     Parallel version (MPI), running on    10 processors

     MPI processes distributed on     1 nodes
     14908 MiB available memory on the printing compute node when the environment starts

     Waiting for input...
     Reading input from standard input
Warning: card &CELL ignored
Warning: card &FCP ignored
Warning: card &RISM ignored

     Current dimensions of program PWSCF are:
     Max number of different atomic species (ntypx) = 10
     Max number of k-points (npk) =  40000
     Max angular momentum in pseudopotentials (lmaxx) =  4
     Message from routine set_vdw_corr:
     entering vdw_corr = DFT-D3
     Message from routine setup:
     using ibrav=0 with symmetry is DISCOURAGED, use correct ibrav instead

     R & G space division:  proc/nbgrp/npool/nimage =      10
     Subspace diagonalization in iterative solution of the eigenvalue problem:
     a serial algorithm will be used


     Parallelization info
     --------------------
     sticks:   dense  smooth     PW     G-vecs:    dense   smooth      PW
     Min         153     153     42                14957    14957    2152
     Max         154     154     43                14970    14970    2165
     Sum        1531    1531    421               149599   149599   21533

     Using Slab Decomposition



     bravais-lattice index     =            0
     lattice parameter (alat)  =       9.2823  a.u.
     unit-cell volume          =    2115.1209 (a.u.)^3
     number of atoms/cell      =            9
     number of atomic types    =            2
     number of electrons       =        52.00
     number of Kohn-Sham states=           62
     kinetic-energy cutoff     =      65.0000  Ry
     charge density cutoff     =     260.0000  Ry
     scf convergence threshold =      1.0E-10
     mixing beta               =       0.7000
     number of iterations used =            8  plain     mixing
     energy convergence thresh.=      1.0E-04
     force convergence thresh. =      1.0E-03
     Exchange-correlation= PBE
                           (   1   4   3   4   0   0   0)
     nstep                     =           50

     Non magnetic calculation with spin-orbit


     celldm(1)=   9.282335  celldm(2)=   0.000000  celldm(3)=   0.000000
     celldm(4)=   0.000000  celldm(5)=   0.000000  celldm(6)=   0.000000

     crystal axes: (cart. coord. in units of alat)
               a(1) = (   1.000000   0.000000   0.000000 )  
               a(2) = (  -0.500000   0.866025   0.000000 )  
               a(3) = (   0.000000   0.000000   3.053746 )  

     reciprocal axes: (cart. coord. in units 2 pi/alat)
               b(1) = (  1.000000  0.577350 -0.000000 )  
               b(2) = (  0.000000  1.154701  0.000000 )  
               b(3) = (  0.000000 -0.000000  0.327467 )  


     PseudoPot. # 1 for C  read from file:
     ./C_r.upf
     MD5 check sum: d80ec9912146af6c4c1760317d1f95e9
     Pseudo is Norm-conserving + core correction, Zval =  4.0
     Generated using ONCVPSP code by D. R. Hamann
     Using radial grid of 1248 points,  6 beta functions with: 
                l(1) =   0
                l(2) =   0
                l(3) =   1
                l(4) =   1
                l(5) =   1
                l(6) =   1

     PseudoPot. # 2 for Hg read from file:
     ./Hg-sp_r.upf
     MD5 check sum: d85b3e284848a6ef6fce73cef7b59184
     Pseudo is Norm-conserving + core correction, Zval = 20.0
     Generated using ONCVPSP code by D. R. Hamann
     Using radial grid of 1246 points, 12 beta functions with: 
                l(1) =   0
                l(2) =   0
                l(3) =   1
                l(4) =   1
                l(5) =   1
                l(6) =   1
                l(7) =   2
                l(8) =   2
                l(9) =   2
               l(10) =   2
               l(11) =   3
               l(12) =   3

     atomic species   valence    mass     pseudopotential
     C                 4.00    12.01100     C ( 1.00)
     Hg               20.00   200.59200     Hg( 1.00)

      6 Sym. Ops. (no inversion) found ( 4 have fractional translation)



   Cartesian axes

     site n.     atom                  positions (alat units)
         1        C      tau(   1) = (   0.0000000   0.0000096   1.5119700  )
         2        C      tau(   2) = (  -0.2499917   0.4330079   1.5119700  )
         3        C      tau(   3) = (   0.5000000   0.0000000   1.5126067  )
         4        C      tau(   4) = (   0.2499916   0.4330079   1.5119700  )
         5        C      tau(   5) = (   0.2499928   0.1443417   1.5122979  )
         6        C      tau(   6) = (  -0.0000001   0.5773419   1.5122979  )
         7        C      tau(   7) = (   0.7500072   0.1443417   1.5122979  )
         8        C      tau(   8) = (   0.4999999   0.5773502   1.5117386  )
         9        Hg     tau(   9) = (   0.4999999   0.5773502   2.2554563  )

     --------------------------------------------
     DFT-D3 Dispersion Correction (3-body terms):
     --------------------------------------------
       Reference C6 values for interpolation: 

         atom   Coordination number   C6
         C          0.000            98.23
         C          0.987            86.49
         C          1.998            58.72
         C          2.999            51.56
         C          3.984            36.41
         Hg         0.000           724.15
         Hg         1.990           597.72

       Values used:

         atom   Coordination number  R0_AB[au]  C6      C8
         C          3.332            2.750     47.90   1385.21
         C          3.332            2.750     47.90   1385.21
         C          3.327            2.750     48.01   1388.45
         C          3.332            2.750     47.90   1385.21
         C          3.328            2.750     47.99   1387.92
         C          3.328            2.750     47.99   1387.92
         C          3.328            2.750     47.99   1387.92
         C          3.343            2.750     47.66   1378.46
         Hg         0.141            3.175    724.15  72691.39

         Molecular C6 ( Ry / a.u.^6 ) =      6734.07


     number of k points=     2  Gaussian smearing, width (Ry)=  0.0100
                       cart. coord. in units 2pi/alat
        k(    1) = (   0.0000000   0.0000000   0.0000000), wk =   0.2500000
        k(    2) = (   0.0000000  -0.5773503   0.0000000), wk =   0.7500000

     Dense  grid:   149599 G-vectors     FFT dimensions: (  48,  48, 150)

     Estimated max dynamical RAM per process >      70.52 MB

     Estimated total dynamical RAM >     705.21 MB
 ----2D----2D----2D----2D----2D----2D----2D----2D----2D----2D----2D----2D
  The code is running with the 2D cutoff
  Please refer to:
  Sohier, T., Calandra, M., & Mauri, F. (2017), 
  Density functional perturbation theory for gated two-dimensional heterostructures:
  Theoretical developments and application to flexural phonons in graphene.
  Physical Review B, 96(7), 75448. https://doi.org/10.1103/PhysRevB.96.075448
 ----2D----2D----2D----2D----2D----2D----2D----2D----2D----2D----2D----2D

     Initial potential from superposition of free atoms

     starting charge      51.9996, renormalised to      52.0000

     negative rho (up, down):  1.208E-05 0.000E+00
     Starting wfcs are   84 randomized atomic wfcs

     total cpu time spent up to now is        0.7 secs

     per-process dynamical memory:    75.3 Mb

     Self-consistent Calculation

     iteration #  1     ecut=    65.00 Ry     beta= 0.70
     Davidson diagonalization with overlap
     ethr =  1.00E-02,  avg # of iterations =  3.5

     total cpu time spent up to now is        1.9 secs

     total energy              =    -429.95076825 Ry
     estimated scf accuracy    <       0.79005451 Ry

     iteration #  2     ecut=    65.00 Ry     beta= 0.70
     Davidson diagonalization with overlap
     ethr =  1.52E-03,  avg # of iterations = 10.0

     total cpu time spent up to now is        3.3 secs

     total energy              =    -430.08051653 Ry
     estimated scf accuracy    <       0.06016577 Ry

     iteration #  3     ecut=    65.00 Ry     beta= 0.70
     Davidson diagonalization with overlap
     ethr =  1.16E-04,  avg # of iterations =  7.0

     total cpu time spent up to now is        4.6 secs

     total energy              =    -430.10043348 Ry
     estimated scf accuracy    <       0.06533335 Ry

     iteration #  4     ecut=    65.00 Ry     beta= 0.70
     Davidson diagonalization with overlap
     ethr =  1.16E-04,  avg # of iterations =  4.0

     total cpu time spent up to now is        5.6 secs

     total energy              =    -430.11729535 Ry
     estimated scf accuracy    <       0.00140978 Ry

     iteration #  5     ecut=    65.00 Ry     beta= 0.70
     Davidson diagonalization with overlap
     ethr =  2.71E-06,  avg # of iterations =  8.5

     total cpu time spent up to now is        7.0 secs

     total energy              =    -430.11767729 Ry
     estimated scf accuracy    <       0.00113669 Ry

     iteration #  6     ecut=    65.00 Ry     beta= 0.70
     Davidson diagonalization with overlap
     ethr =  2.19E-06,  avg # of iterations =  4.5

     total cpu time spent up to now is        8.1 secs

     total energy              =    -430.11788111 Ry
     estimated scf accuracy    <       0.00001652 Ry

     iteration #  7     ecut=    65.00 Ry     beta= 0.70
     Davidson diagonalization with overlap
     ethr =  3.18E-08,  avg # of iterations =  3.5

     total cpu time spent up to now is        9.3 secs

     total energy              =    -430.11788828 Ry
     estimated scf accuracy    <       0.00000355 Ry

     iteration #  8     ecut=    65.00 Ry     beta= 0.70
     Davidson diagonalization with overlap
     ethr =  6.82E-09,  avg # of iterations =  3.0

     total cpu time spent up to now is       10.4 secs

     total energy              =    -430.11788914 Ry
     estimated scf accuracy    <       0.00000057 Ry

     iteration #  9     ecut=    65.00 Ry     beta= 0.70
     Davidson diagonalization with overlap
     ethr =  1.09E-09,  avg # of iterations =  2.0

     total cpu time spent up to now is       11.4 secs

     total energy              =    -430.11788924 Ry
     estimated scf accuracy    <       0.00000003 Ry

     iteration # 10     ecut=    65.00 Ry     beta= 0.70
     Davidson diagonalization with overlap
     ethr =  6.56E-11,  avg # of iterations =  3.5

     total cpu time spent up to now is       12.6 secs

     total energy              =    -430.11788926 Ry
     estimated scf accuracy    <          5.5E-09 Ry

     iteration # 11     ecut=    65.00 Ry     beta= 0.70
     Davidson diagonalization with overlap
     ethr =  1.06E-11,  avg # of iterations =  2.5

     total cpu time spent up to now is       13.6 secs

     total energy              =    -430.11788926 Ry
     estimated scf accuracy    <          8.5E-10 Ry

     iteration # 12     ecut=    65.00 Ry     beta= 0.70
     Davidson diagonalization with overlap
     ethr =  1.63E-12,  avg # of iterations =  3.0

     total cpu time spent up to now is       14.6 secs

     End of self-consistent calculation

          k = 0.0000 0.0000 0.0000 ( 18643 PWs)   bands (ev):

  -117.7143-117.7143 -79.7069 -79.7069 -61.4402 -61.4402 -61.4396 -61.4396
   -23.8731 -23.8731 -18.5783 -18.5783 -18.5771 -18.5771 -18.5771 -18.5771
   -17.5776 -17.5776 -17.5773 -17.5773 -17.5773 -17.5773 -11.9686 -11.9686
   -10.8427 -10.8427 -10.8340 -10.8340 -10.7142 -10.7142 -10.7142 -10.7142
   -10.7141 -10.7141  -9.0198  -9.0198  -9.0136  -9.0136  -8.9944  -8.9944
    -7.2831  -7.2831  -7.2739  -7.2739  -7.1759  -7.1759  -6.6205  -6.6205
    -6.6203  -6.6203  -6.6005  -6.6005  -2.5531  -2.5531  -2.5469  -2.5469
    -2.5442  -2.5442  -1.4550  -1.4550   0.5362   0.5362

          k = 0.0000-0.5774 0.0000 ( 18732 PWs)   bands (ev):

  -117.7143-117.7143 -79.7069 -79.7069 -61.4402 -61.4402 -61.4396 -61.4396
   -22.3997 -22.3997 -22.3986 -22.3986 -19.5611 -19.5611 -19.5605 -19.5605
   -14.8191 -14.8191 -14.8189 -14.8189 -13.2766 -13.2766 -13.2762 -13.2762
   -11.7027 -11.7027 -11.7027 -11.7027 -10.8456 -10.8456 -10.8332 -10.8332
   -10.2296 -10.2296 -10.1954 -10.1954  -9.3232  -9.3232  -9.3230  -9.3230
    -9.0208  -9.0208  -8.9917  -8.9917  -8.9737  -8.9737  -7.0373  -7.0373
    -7.0047  -7.0047  -6.4450  -6.4450  -2.1326  -2.1326  -1.3836  -1.3836
    -1.3806  -1.3806  -0.3322  -0.3322   0.6589   0.6589

     the Fermi energy is    -5.5490 ev

!    total energy              =    -430.11788926 Ry
     estimated scf accuracy    <          1.6E-11 Ry
     smearing contrib. (-TS)   =      -0.00000000 Ry
     internal energy E=F+TS    =    -430.11788926 Ry

     The total energy is F=E-TS. E is the sum of the following terms:
     one-electron contribution =   -1731.14422133 Ry
     hartree contribution      =     861.15581933 Ry
     xc contribution           =     -89.63514075 Ry
     ewald contribution        =     529.54638956 Ry
     DFT-D3 Dispersion         =      -0.04073608 Ry

     convergence has been achieved in  12 iterations

     Forces acting on atoms (cartesian axes, Ry/au):

     atom    1 type  1   force =    -0.00000000    0.00000007    0.00089394
     atom    2 type  1   force =     0.00000006   -0.00000003    0.00089394
     atom    3 type  1   force =     0.00000000   -0.00000000    0.00061581
     atom    4 type  1   force =    -0.00000006   -0.00000003    0.00089394
     atom    5 type  1   force =     0.00000292   -0.00000169    0.00076461
     atom    6 type  1   force =     0.00000000    0.00000337    0.00076461
     atom    7 type  1   force =    -0.00000292   -0.00000169    0.00076461
     atom    8 type  1   force =     0.00000000   -0.00000000    0.00037968
     atom    9 type  2   force =    -0.00000000   -0.00000000   -0.00597115

     Total force =     0.006351     Total SCF correction =     0.000018


     Computing stress (Cartesian axis) and pressure

          total   stress  (Ry/bohr**3)                   (kbar)     P=        0.11
   0.00002194   0.00000000   0.00000000            3.23        0.00        0.00
   0.00000000   0.00002194  -0.00000000            0.00        3.23       -0.00
   0.00000000   0.00000000  -0.00004172            0.00        0.00       -6.14


     BFGS Geometry Optimization
     Energy error            =      4.0E-05 Ry
     Gradient error          =      6.0E-03 Ry/Bohr

     number of scf cycles    =   1
     number of bfgs steps    =   0

     energy             new  =    -430.1178892629 Ry

     new trust radius        =       0.0059711534 bohr
     new conv_thr            =            1.0E-10 Ry


ATOMIC_POSITIONS (angstrom)
C                0.0000000000        0.0000470933        7.4272698769
C               -1.2279594653        2.1269346875        7.4272698769
C                2.4560000900       -0.0000000000        7.4302503334
C                1.2279588993        2.1269346875        7.4272698769
C                1.2279660502        0.7090057071        7.4288122894
C               -0.0000003780        2.8359051227        7.4288122894
C                3.6840337938        0.7090057071        7.4288122894
C                2.4559997120        2.8359442390        7.4258611248
Hg               2.4559997120        2.8359442390       11.0756420665



     Writing config-only to output data dir ./outputs/c_hg.save/ :
     XML data file
     NEW-OLD atomic charge density approx. for the potential

     negative rho (up, down):  2.668E-08 0.000E+00

     total cpu time spent up to now is       15.4 secs

     per-process dynamical memory:    80.2 Mb

     Self-consistent Calculation

     iteration #  1     ecut=    65.00 Ry     beta= 0.70
     Davidson diagonalization with overlap
     ethr =  1.00E-06,  avg # of iterations =  4.0

     Threshold (ethr) on eigenvalues was too large:
     Diagonalizing with lowered threshold

     Davidson diagonalization with overlap
     ethr =  1.28E-09,  avg # of iterations =  4.0

     total cpu time spent up to now is       17.9 secs

     total energy              =    -430.11792895 Ry
     estimated scf accuracy    <       0.00000092 Ry

     iteration #  2     ecut=    65.00 Ry     beta= 0.70
     Davidson diagonalization with overlap
     ethr =  1.77E-09,  avg # of iterations =  2.5

     total cpu time spent up to now is       18.8 secs

     total energy              =    -430.11792907 Ry
     estimated scf accuracy    <       0.00000071 Ry

     iteration #  3     ecut=    65.00 Ry     beta= 0.70
     Davidson diagonalization with overlap
     ethr =  1.37E-09,  avg # of iterations =  2.0

     total cpu time spent up to now is       19.8 secs

     total energy              =    -430.11792930 Ry
     estimated scf accuracy    <       0.00000002 Ry

     iteration #  4     ecut=    65.00 Ry     beta= 0.70
     Davidson diagonalization with overlap
     ethr =  4.26E-11,  avg # of iterations =  3.0

     total cpu time spent up to now is       20.9 secs

     total energy              =    -430.11792931 Ry
     estimated scf accuracy    <          5.1E-09 Ry

     iteration #  5     ecut=    65.00 Ry     beta= 0.70
     Davidson diagonalization with overlap
     ethr =  9.77E-12,  avg # of iterations =  2.0

     total cpu time spent up to now is       21.8 secs

     total energy              =    -430.11792931 Ry
     estimated scf accuracy    <          2.0E-10 Ry

     iteration #  6     ecut=    65.00 Ry     beta= 0.70
     Davidson diagonalization with overlap
     ethr =  3.92E-13,  avg # of iterations =  3.5

     total cpu time spent up to now is       22.8 secs

     End of self-consistent calculation

          k = 0.0000 0.0000 0.0000 ( 18643 PWs)   bands (ev):

  -117.7143-117.7143 -79.7069 -79.7069 -61.4402 -61.4402 -61.4395 -61.4395
   -23.8745 -23.8745 -18.5797 -18.5797 -18.5785 -18.5785 -18.5785 -18.5785
   -17.5789 -17.5789 -17.5787 -17.5787 -17.5787 -17.5787 -11.9702 -11.9702
   -10.8426 -10.8426 -10.8339 -10.8339 -10.7156 -10.7156 -10.7156 -10.7156
   -10.7154 -10.7154  -9.0198  -9.0198  -9.0136  -9.0136  -8.9944  -8.9944
    -7.2844  -7.2844  -7.2753  -7.2753  -7.1760  -7.1760  -6.6219  -6.6219
    -6.6217  -6.6217  -6.6015  -6.6015  -2.5546  -2.5546  -2.5483  -2.5483
    -2.5456  -2.5456  -1.4547  -1.4547   0.5334   0.5334

          k = 0.0000-0.5774 0.0000 ( 18732 PWs)   bands (ev):

  -117.7143-117.7143 -79.7069 -79.7069 -61.4402 -61.4402 -61.4395 -61.4395
   -22.4011 -22.4011 -22.3999 -22.3999 -19.5624 -19.5624 -19.5618 -19.5618
   -14.8204 -14.8204 -14.8202 -14.8202 -13.2780 -13.2780 -13.2776 -13.2776
   -11.7041 -11.7041 -11.7040 -11.7040 -10.8457 -10.8457 -10.8332 -10.8332
   -10.2312 -10.2312 -10.1967 -10.1967  -9.3245  -9.3245  -9.3244  -9.3244
    -9.0208  -9.0208  -8.9916  -8.9916  -8.9736  -8.9736  -7.0389  -7.0389
    -7.0060  -7.0060  -6.4445  -6.4445  -2.1325  -2.1325  -1.3850  -1.3850
    -1.3820  -1.3820  -0.3318  -0.3318   0.6589   0.6589

     the Fermi energy is    -5.5489 ev

!    total energy              =    -430.11792931 Ry
     estimated scf accuracy    <          1.1E-11 Ry
     smearing contrib. (-TS)   =      -0.00000000 Ry
     internal energy E=F+TS    =    -430.11792931 Ry

     The total energy is F=E-TS. E is the sum of the following terms:
     one-electron contribution =   -1732.58904335 Ry
     hartree contribution      =     861.87672820 Ry
     xc contribution           =     -89.63516356 Ry
     ewald contribution        =     530.27032589 Ry
     DFT-D3 Dispersion         =      -0.04077648 Ry

     convergence has been achieved in   6 iterations

     Forces acting on atoms (cartesian axes, Ry/au):

     atom    1 type  1   force =     0.00000000    0.00000205    0.00080112
     atom    2 type  1   force =     0.00000178   -0.00000103    0.00080112
     atom    3 type  1   force =     0.00000000   -0.00000000    0.00063966
     atom    4 type  1   force =    -0.00000178   -0.00000103    0.00080112
     atom    5 type  1   force =    -0.00000261    0.00000151    0.00078389
     atom    6 type  1   force =    -0.00000000   -0.00000301    0.00078389
     atom    7 type  1   force =     0.00000261    0.00000151    0.00078389
     atom    8 type  1   force =     0.00000000   -0.00000000    0.00050824
     atom    9 type  2   force =     0.00000000   -0.00000000   -0.00590292

     Total force =     0.006267     Total SCF correction =     0.000009


     Computing stress (Cartesian axis) and pressure

          total   stress  (Ry/bohr**3)                   (kbar)     P=        0.11
   0.00002194   0.00000000   0.00000000            3.23        0.00        0.00
   0.00000000   0.00002194  -0.00000000            0.00        3.23       -0.00
   0.00000000   0.00000000  -0.00004168            0.00        0.00       -6.13

     Energy error            =      4.0E-05 Ry
     Gradient error          =      5.9E-03 Ry/Bohr

     number of scf cycles    =   2
     number of bfgs steps    =   1

     energy             old  =    -430.1178892629 Ry
     energy             new  =    -430.1179293069 Ry

     CASE: energy            _new < energy            _old


     WARNING: bfgs curvature condition failed, Theta= 0.811
     new trust radius        =       0.0065682687 bohr
     new conv_thr            =            1.0E-12 Ry


ATOMIC_POSITIONS (angstrom)
C                0.0000000000        0.0000473969        7.4277792369
C               -1.2279592024        2.1269345357        7.4277792369
C                2.4560000900       -0.0000000000        7.4306129059
C                1.2279586364        2.1269345357        7.4277792369
C                1.2279670180        0.7090051484        7.4292610957
C               -0.0000003780        2.8359062401        7.4292610957
C                3.6840328260        0.7090051484        7.4292610957
C                2.4559997120        2.8359442390        7.4260998316
Hg               2.4559997120        2.8359442390       11.0721662884



     Writing config-only to output data dir ./outputs/c_hg.save/ :
     XML data file
     NEW-OLD atomic charge density approx. for the potential

     negative rho (up, down):  4.166E-08 0.000E+00

     total cpu time spent up to now is       23.6 secs

     per-process dynamical memory:    80.2 Mb

     Self-consistent Calculation

     iteration #  1     ecut=    65.00 Ry     beta= 0.70
     Davidson diagonalization with overlap
     ethr =  1.00E-06,  avg # of iterations =  4.0

     Threshold (ethr) on eigenvalues was too large:
     Diagonalizing with lowered threshold

     Davidson diagonalization with overlap
     ethr =  1.52E-09,  avg # of iterations =  4.0

     total cpu time spent up to now is       26.1 secs

     total energy              =    -430.11797242 Ry
     estimated scf accuracy    <       0.00000110 Ry

     iteration #  2     ecut=    65.00 Ry     beta= 0.70
     Davidson diagonalization with overlap
     ethr =  2.12E-09,  avg # of iterations =  2.5

     total cpu time spent up to now is       27.1 secs

     total energy              =    -430.11797256 Ry
     estimated scf accuracy    <       0.00000084 Ry

     iteration #  3     ecut=    65.00 Ry     beta= 0.70
     Davidson diagonalization with overlap
     ethr =  1.62E-09,  avg # of iterations =  2.0

     total cpu time spent up to now is       28.1 secs

     total energy              =    -430.11797284 Ry
     estimated scf accuracy    <       0.00000003 Ry

     iteration #  4     ecut=    65.00 Ry     beta= 0.70
     Davidson diagonalization with overlap
     ethr =  5.22E-11,  avg # of iterations =  3.0

     total cpu time spent up to now is       29.2 secs

     total energy              =    -430.11797285 Ry
     estimated scf accuracy    <          8.0E-09 Ry

     iteration #  5     ecut=    65.00 Ry     beta= 0.70
     Davidson diagonalization with overlap
     ethr =  1.55E-11,  avg # of iterations =  2.0

     total cpu time spent up to now is       30.1 secs

     total energy              =    -430.11797285 Ry
     estimated scf accuracy    <          2.1E-10 Ry

     iteration #  6     ecut=    65.00 Ry     beta= 0.70
     Davidson diagonalization with overlap
     ethr =  4.10E-13,  avg # of iterations =  4.0

     total cpu time spent up to now is       31.3 secs

     total energy              =    -430.11797285 Ry
     estimated scf accuracy    <          2.0E-11 Ry

     iteration #  7     ecut=    65.00 Ry     beta= 0.70
     Davidson diagonalization with overlap
     ethr =  1.00E-13,  avg # of iterations =  2.0

     total cpu time spent up to now is       32.2 secs

     total energy              =    -430.11797285 Ry
     estimated scf accuracy    <          4.1E-12 Ry

     iteration #  8     ecut=    65.00 Ry     beta= 0.70
     Davidson diagonalization with overlap
     ethr =  1.00E-13,  avg # of iterations =  1.0

     total cpu time spent up to now is       33.0 secs

     End of self-consistent calculation

          k = 0.0000 0.0000 0.0000 ( 18643 PWs)   bands (ev):

  -117.7142-117.7142 -79.7068 -79.7068 -61.4401 -61.4401 -61.4394 -61.4394
   -23.8759 -23.8759 -18.5812 -18.5812 -18.5799 -18.5799 -18.5799 -18.5799
   -17.5804 -17.5804 -17.5802 -17.5802 -17.5801 -17.5801 -11.9719 -11.9719
   -10.8426 -10.8426 -10.8339 -10.8339 -10.7170 -10.7170 -10.7170 -10.7170
   -10.7169 -10.7169  -9.0197  -9.0197  -9.0136  -9.0136  -8.9944  -8.9944
    -7.2859  -7.2859  -7.2767  -7.2767  -7.1761  -7.1761  -6.6233  -6.6233
    -6.6231  -6.6231  -6.6027  -6.6027  -2.5563  -2.5563  -2.5499  -2.5499
    -2.5471  -2.5471  -1.4543  -1.4543   0.5304   0.5304

          k = 0.0000-0.5774 0.0000 ( 18732 PWs)   bands (ev):

  -117.7142-117.7142 -79.7068 -79.7068 -61.4401 -61.4401 -61.4394 -61.4394
   -22.4025 -22.4025 -22.4014 -22.4014 -19.5639 -19.5639 -19.5633 -19.5633
   -14.8219 -14.8219 -14.8217 -14.8217 -13.2794 -13.2794 -13.2790 -13.2790
   -11.7055 -11.7055 -11.7055 -11.7055 -10.8458 -10.8458 -10.8331 -10.8331
   -10.2330 -10.2330 -10.1982 -10.1982  -9.3260  -9.3260  -9.3259  -9.3259
    -9.0207  -9.0207  -8.9915  -8.9915  -8.9735  -8.9735  -7.0407  -7.0407
    -7.0075  -7.0075  -6.4439  -6.4439  -2.1325  -2.1325  -1.3865  -1.3865
    -1.3835  -1.3835  -0.3314  -0.3314   0.6590   0.6590

     the Fermi energy is    -5.5489 ev

!    total energy              =    -430.11797285 Ry
     estimated scf accuracy    <          2.6E-13 Ry
     smearing contrib. (-TS)   =      -0.00000000 Ry
     internal energy E=F+TS    =    -430.11797285 Ry

     The total energy is F=E-TS. E is the sum of the following terms:
     one-electron contribution =   -1734.17827271 Ry
     hartree contribution      =     862.66965004 Ry
     xc contribution           =     -89.63518552 Ry
     ewald contribution        =     531.06665633 Ry
     DFT-D3 Dispersion         =      -0.04082098 Ry

     convergence has been achieved in   8 iterations

     Forces acting on atoms (cartesian axes, Ry/au):

     atom    1 type  1   force =     0.00000000    0.00000292    0.00071455
     atom    2 type  1   force =     0.00000253   -0.00000146    0.00071455
     atom    3 type  1   force =     0.00000000   -0.00000000    0.00067073
     atom    4 type  1   force =    -0.00000253   -0.00000146    0.00071455
     atom    5 type  1   force =    -0.00000649    0.00000375    0.00080101
     atom    6 type  1   force =     0.00000000   -0.00000749    0.00080101
     atom    7 type  1   force =     0.00000649    0.00000375    0.00080101
     atom    8 type  1   force =     0.00000000    0.00000000    0.00063487
     atom    9 type  2   force =     0.00000000    0.00000000   -0.00585229

     Total force =     0.006210     Total SCF correction =     0.000005


     Computing stress (Cartesian axis) and pressure

          total   stress  (Ry/bohr**3)                   (kbar)     P=        0.11
   0.00002192   0.00000000   0.00000000            3.23        0.00        0.00
   0.00000000   0.00002192  -0.00000000            0.00        3.23       -0.00
   0.00000000   0.00000000  -0.00004165            0.00        0.00       -6.13

     Energy error            =      4.4E-05 Ry
     Gradient error          =      5.9E-03 Ry/Bohr

     number of scf cycles    =   3
     number of bfgs steps    =   2

     energy             old  =    -430.1179293069 Ry
     energy             new  =    -430.1179728497 Ry

     CASE: energy            _new < energy            _old

     new trust radius        =       0.0098524031 bohr
     new conv_thr            =            1.0E-12 Ry


ATOMIC_POSITIONS (angstrom)
C                0.0000000000        0.0000484903        7.4284851383
C               -1.2279582555        2.1269339890        7.4284851383
C                2.4560000900       -0.0000000000        7.4311834896
C                1.2279576895        2.1269339890        7.4284851383
C                1.2279656352        0.7090059467        7.4299516743
C               -0.0000003780        2.8359046434        7.4299516743
C                3.6840342088        0.7090059467        7.4299516743
C                2.4559997120        2.8359442390        7.4265534750
Hg               2.4559997120        2.8359442390       11.0669526212



     Writing config-only to output data dir ./outputs/c_hg.save/ :
     XML data file
     NEW-OLD atomic charge density approx. for the potential

     negative rho (up, down):  1.851E-07 0.000E+00

     total cpu time spent up to now is       33.8 secs

     per-process dynamical memory:    80.4 Mb

     Self-consistent Calculation

     iteration #  1     ecut=    65.00 Ry     beta= 0.70
     Davidson diagonalization with overlap
     ethr =  1.00E-06,  avg # of iterations =  4.0

     Threshold (ethr) on eigenvalues was too large:
     Diagonalizing with lowered threshold

     Davidson diagonalization with overlap
     ethr =  3.04E-09,  avg # of iterations =  3.0

     total cpu time spent up to now is       36.3 secs

     total energy              =    -430.11803628 Ry
     estimated scf accuracy    <       0.00000248 Ry

     iteration #  2     ecut=    65.00 Ry     beta= 0.70
     Davidson diagonalization with overlap
     ethr =  4.77E-09,  avg # of iterations =  2.5

     total cpu time spent up to now is       37.3 secs

     total energy              =    -430.11803660 Ry
     estimated scf accuracy    <       0.00000194 Ry

     iteration #  3     ecut=    65.00 Ry     beta= 0.70
     Davidson diagonalization with overlap
     ethr =  3.73E-09,  avg # of iterations =  2.0

     total cpu time spent up to now is       38.3 secs

     total energy              =    -430.11803723 Ry
     estimated scf accuracy    <       0.00000006 Ry

     iteration #  4     ecut=    65.00 Ry     beta= 0.70
     Davidson diagonalization with overlap
     ethr =  1.16E-10,  avg # of iterations =  3.0

     total cpu time spent up to now is       39.3 secs

     total energy              =    -430.11803724 Ry
     estimated scf accuracy    <       0.00000001 Ry

     iteration #  5     ecut=    65.00 Ry     beta= 0.70
     Davidson diagonalization with overlap
     ethr =  2.71E-11,  avg # of iterations =  2.0

     total cpu time spent up to now is       40.3 secs

     total energy              =    -430.11803725 Ry
     estimated scf accuracy    <          3.8E-10 Ry

     iteration #  6     ecut=    65.00 Ry     beta= 0.70
     Davidson diagonalization with overlap
     ethr =  7.34E-13,  avg # of iterations =  3.5

     total cpu time spent up to now is       41.4 secs

     total energy              =    -430.11803725 Ry
     estimated scf accuracy    <          2.7E-11 Ry

     iteration #  7     ecut=    65.00 Ry     beta= 0.70
     Davidson diagonalization with overlap
     ethr =  1.00E-13,  avg # of iterations =  3.0

     total cpu time spent up to now is       42.4 secs

     total energy              =    -430.11803725 Ry
     estimated scf accuracy    <          8.8E-12 Ry

     iteration #  8     ecut=    65.00 Ry     beta= 0.70
     Davidson diagonalization with overlap
     ethr =  1.00E-13,  avg # of iterations =  1.0

     total cpu time spent up to now is       43.3 secs

     End of self-consistent calculation

          k = 0.0000 0.0000 0.0000 ( 18643 PWs)   bands (ev):

  -117.7140-117.7140 -79.7067 -79.7067 -61.4399 -61.4399 -61.4393 -61.4393
   -23.8782 -23.8782 -18.5834 -18.5834 -18.5821 -18.5821 -18.5821 -18.5821
   -17.5826 -17.5826 -17.5824 -17.5824 -17.5824 -17.5824 -11.9745 -11.9745
   -10.8425 -10.8425 -10.8338 -10.8338 -10.7193 -10.7193 -10.7193 -10.7193
   -10.7191 -10.7191  -9.0196  -9.0196  -9.0136  -9.0136  -8.9943  -8.9943
    -7.2881  -7.2881  -7.2790  -7.2790  -7.1763  -7.1763  -6.6256  -6.6256
    -6.6253  -6.6253  -6.6043  -6.6043  -2.5587  -2.5587  -2.5523  -2.5523
    -2.5494  -2.5494  -1.4537  -1.4537   0.5258   0.5258

          k = 0.0000-0.5774 0.0000 ( 18732 PWs)   bands (ev):

  -117.7140-117.7140 -79.7067 -79.7067 -61.4400 -61.4400 -61.4393 -61.4393
   -22.4048 -22.4048 -22.4036 -22.4036 -19.5661 -19.5661 -19.5655 -19.5655
   -14.8241 -14.8241 -14.8239 -14.8239 -13.2817 -13.2817 -13.2813 -13.2813
   -11.7078 -11.7078 -11.7077 -11.7077 -10.8460 -10.8460 -10.8330 -10.8330
   -10.2357 -10.2357 -10.2003 -10.2003  -9.3282  -9.3282  -9.3281  -9.3281
    -9.0207  -9.0207  -8.9913  -8.9913  -8.9733  -8.9733  -7.0433  -7.0433
    -7.0097  -7.0097  -6.4430  -6.4430  -2.1324  -2.1324  -1.3887  -1.3887
    -1.3858  -1.3858  -0.3308  -0.3308   0.6591   0.6591

     the Fermi energy is    -5.5488 ev

!    total energy              =    -430.11803725 Ry
     estimated scf accuracy    <          6.0E-13 Ry
     smearing contrib. (-TS)   =      -0.00000000 Ry
     internal energy E=F+TS    =    -430.11803725 Ry

     The total energy is F=E-TS. E is the sum of the following terms:
     one-electron contribution =   -1736.56222246 Ry
     hartree contribution      =     863.85912341 Ry
     xc contribution           =     -89.63522477 Ry
     ewald contribution        =     532.26117442 Ry
     DFT-D3 Dispersion         =      -0.04088785 Ry

     convergence has been achieved in   8 iterations

     Forces acting on atoms (cartesian axes, Ry/au):

     atom    1 type  1   force =     0.00000000    0.00000247    0.00064678
     atom    2 type  1   force =     0.00000214   -0.00000123    0.00064678
     atom    3 type  1   force =     0.00000000    0.00000000    0.00072458
     atom    4 type  1   force =    -0.00000214   -0.00000123    0.00064678
     atom    5 type  1   force =    -0.00000369    0.00000213    0.00078869
     atom    6 type  1   force =     0.00000000   -0.00000426    0.00078869
     atom    7 type  1   force =     0.00000369    0.00000213    0.00078869
     atom    8 type  1   force =     0.00000000   -0.00000000    0.00073435
     atom    9 type  2   force =     0.00000000    0.00000000   -0.00576533

     Total force =     0.006118     Total SCF correction =     0.000010


     Computing stress (Cartesian axis) and pressure

          total   stress  (Ry/bohr**3)                   (kbar)     P=        0.11
   0.00002191   0.00000000   0.00000000            3.22        0.00        0.00
   0.00000000   0.00002191  -0.00000000            0.00        3.22       -0.00
   0.00000000   0.00000000  -0.00004158            0.00        0.00       -6.12

     Energy error            =      6.4E-05 Ry
     Gradient error          =      5.8E-03 Ry/Bohr

     number of scf cycles    =   4
     number of bfgs steps    =   3

     energy             old  =    -430.1179728497 Ry
     energy             new  =    -430.1180372480 Ry

     CASE: energy            _new < energy            _old

     new trust radius        =       0.0147786046 bohr
     new conv_thr            =            1.0E-12 Ry


ATOMIC_POSITIONS (angstrom)
C                0.0000000000        0.0000497550        7.4295032103
C               -1.2279571602        2.1269333566        7.4295032103
C                2.4560000900       -0.0000000000        7.4320877528
C                1.2279565942        2.1269333566        7.4295032103
C                1.2279659067        0.7090057900        7.4309859122
C               -0.0000003780        2.8359049569        7.4309859122
C                3.6840339373        0.7090057900        7.4309859122
C                2.4559997120        2.8359442390        7.4273127830
Hg               2.4559997120        2.8359442390       11.0591321204



     Writing config-only to output data dir ./outputs/c_hg.save/ :
     XML data file
     NEW-OLD atomic charge density approx. for the potential

     negative rho (up, down):  5.640E-07 0.000E+00

     total cpu time spent up to now is       44.0 secs

     per-process dynamical memory:    80.4 Mb

     Self-consistent Calculation

     iteration #  1     ecut=    65.00 Ry     beta= 0.70
     Davidson diagonalization with overlap
     ethr =  1.00E-06,  avg # of iterations =  4.5

     Threshold (ethr) on eigenvalues was too large:
     Diagonalizing with lowered threshold

     Davidson diagonalization with overlap
     ethr =  6.83E-09,  avg # of iterations =  3.0

     total cpu time spent up to now is       46.5 secs

     total energy              =    -430.11812977 Ry
     estimated scf accuracy    <       0.00000556 Ry

     iteration #  2     ecut=    65.00 Ry     beta= 0.70
     Davidson diagonalization with overlap
     ethr =  1.07E-08,  avg # of iterations =  2.5

     total cpu time spent up to now is       47.5 secs

     total energy              =    -430.11813050 Ry
     estimated scf accuracy    <       0.00000435 Ry

     iteration #  3     ecut=    65.00 Ry     beta= 0.70
     Davidson diagonalization with overlap
     ethr =  8.37E-09,  avg # of iterations =  2.0

     total cpu time spent up to now is       48.5 secs

     total energy              =    -430.11813191 Ry
     estimated scf accuracy    <       0.00000014 Ry

     iteration #  4     ecut=    65.00 Ry     beta= 0.70
     Davidson diagonalization with overlap
     ethr =  2.61E-10,  avg # of iterations =  3.0

     total cpu time spent up to now is       49.6 secs

     total energy              =    -430.11813195 Ry
     estimated scf accuracy    <       0.00000003 Ry

     iteration #  5     ecut=    65.00 Ry     beta= 0.70
     Davidson diagonalization with overlap
     ethr =  5.85E-11,  avg # of iterations =  2.0

     total cpu time spent up to now is       50.5 secs

     total energy              =    -430.11813196 Ry
     estimated scf accuracy    <          8.9E-10 Ry

     iteration #  6     ecut=    65.00 Ry     beta= 0.70
     Davidson diagonalization with overlap
     ethr =  1.72E-12,  avg # of iterations =  3.0

     total cpu time spent up to now is       51.6 secs

     total energy              =    -430.11813196 Ry
     estimated scf accuracy    <          7.0E-11 Ry

     iteration #  7     ecut=    65.00 Ry     beta= 0.70
     Davidson diagonalization with overlap
     ethr =  1.35E-13,  avg # of iterations =  4.0

     total cpu time spent up to now is       52.7 secs

     total energy              =    -430.11813196 Ry
     estimated scf accuracy    <          2.9E-11 Ry

     iteration #  8     ecut=    65.00 Ry     beta= 0.70
     Davidson diagonalization with overlap
     ethr =  1.00E-13,  avg # of iterations =  2.0

     total cpu time spent up to now is       53.6 secs

     total energy              =    -430.11813196 Ry
     estimated scf accuracy    <          1.7E-12 Ry

     iteration #  9     ecut=    65.00 Ry     beta= 0.70
     Davidson diagonalization with overlap
     ethr =  1.00E-13,  avg # of iterations =  1.0

     total cpu time spent up to now is       54.4 secs

     End of self-consistent calculation

          k = 0.0000 0.0000 0.0000 ( 18643 PWs)   bands (ev):

  -117.7138-117.7138 -79.7065 -79.7065 -61.4397 -61.4397 -61.4391 -61.4391
   -23.8815 -23.8815 -18.5868 -18.5868 -18.5855 -18.5855 -18.5854 -18.5854
   -17.5860 -17.5860 -17.5857 -17.5857 -17.5857 -17.5857 -11.9784 -11.9784
   -10.8423 -10.8423 -10.8336 -10.8336 -10.7226 -10.7226 -10.7226 -10.7226
   -10.7224 -10.7224  -9.0194  -9.0194  -9.0135  -9.0135  -8.9942  -8.9942
    -7.2915  -7.2915  -7.2823  -7.2823  -7.1766  -7.1766  -6.6289  -6.6289
    -6.6287  -6.6287  -6.6068  -6.6068  -2.5625  -2.5625  -2.5560  -2.5560
    -2.5530  -2.5530  -1.4527  -1.4527   0.5189   0.5189

          k = 0.0000-0.5774 0.0000 ( 18732 PWs)   bands (ev):

  -117.7138-117.7138 -79.7065 -79.7065 -61.4398 -61.4398 -61.4391 -61.4391
   -22.4081 -22.4081 -22.4069 -22.4069 -19.5695 -19.5695 -19.5688 -19.5688
   -14.8275 -14.8275 -14.8273 -14.8273 -13.2850 -13.2850 -13.2846 -13.2846
   -11.7111 -11.7111 -11.7110 -11.7110 -10.8462 -10.8462 -10.8329 -10.8329
   -10.2398 -10.2398 -10.2036 -10.2036  -9.3315  -9.3315  -9.3314  -9.3314
    -9.0206  -9.0206  -8.9910  -8.9910  -8.9731  -8.9731  -7.0472  -7.0472
    -7.0131  -7.0131  -6.4415  -6.4415  -2.1323  -2.1323  -1.3922  -1.3922
    -1.3892  -1.3892  -0.3297  -0.3297   0.6592   0.6592

     the Fermi energy is    -5.5486 ev

!    total energy              =    -430.11813196 Ry
     estimated scf accuracy    <          3.0E-13 Ry
     smearing contrib. (-TS)   =      -0.00000000 Ry
     internal energy E=F+TS    =    -430.11813196 Ry

     The total energy is F=E-TS. E is the sum of the following terms:
     one-electron contribution =   -1740.13818837 Ry
     hartree contribution      =     865.64335890 Ry
     xc contribution           =     -89.63528898 Ry
     ewald contribution        =     534.05297491 Ry
     DFT-D3 Dispersion         =      -0.04098841 Ry

     convergence has been achieved in   9 iterations

     Forces acting on atoms (cartesian axes, Ry/au):

     atom    1 type  1   force =    -0.00000000    0.00000357    0.00058433
     atom    2 type  1   force =     0.00000309   -0.00000178    0.00058433
     atom    3 type  1   force =     0.00000000    0.00000000    0.00078703
     atom    4 type  1   force =    -0.00000309   -0.00000178    0.00058433
     atom    5 type  1   force =    -0.00000695    0.00000401    0.00075912
     atom    6 type  1   force =     0.00000000   -0.00000803    0.00075912
     atom    7 type  1   force =     0.00000695    0.00000401    0.00075912
     atom    8 type  1   force =     0.00000000    0.00000000    0.00081620
     atom    9 type  2   force =     0.00000000    0.00000000   -0.00563357

     Total force =     0.005981     Total SCF correction =     0.000006


     Computing stress (Cartesian axis) and pressure

          total   stress  (Ry/bohr**3)                   (kbar)     P=        0.11
   0.00002190   0.00000000   0.00000000            3.22        0.00        0.00
   0.00000000   0.00002190   0.00000000            0.00        3.22        0.00
   0.00000000  -0.00000000  -0.00004146            0.00       -0.00       -6.10

     Energy error            =      9.5E-05 Ry
     Gradient error          =      5.6E-03 Ry/Bohr

     number of scf cycles    =   5
     number of bfgs steps    =   4

     energy             old  =    -430.1180372480 Ry
     energy             new  =    -430.1181319572 Ry

     CASE: energy            _new < energy            _old

     new trust radius        =       0.0221679069 bohr
     new conv_thr            =            1.0E-12 Ry


ATOMIC_POSITIONS (angstrom)
C                0.0000000000        0.0000525404        7.4309965908
C               -1.2279547480        2.1269319639        7.4309965908
C                2.4560000900       -0.0000000000        7.4335050469
C                1.2279541820        2.1269319639        7.4309965908
C                1.2279637678        0.7090070249        7.4325268534
C               -0.0000003780        2.8359024872        7.4325268534
C                3.6840360762        0.7090070249        7.4325268534
C                2.4559997120        2.8359442390        7.4285232749
Hg               2.4559997120        2.8359442390       11.0474013692



     Writing config-only to output data dir ./outputs/c_hg.save/ :
     XML data file
     NEW-OLD atomic charge density approx. for the potential

     negative rho (up, down):  1.403E-06 0.000E+00

     total cpu time spent up to now is       55.2 secs

     per-process dynamical memory:    80.4 Mb

     Self-consistent Calculation

     iteration #  1     ecut=    65.00 Ry     beta= 0.70
     Davidson diagonalization with overlap
     ethr =  1.00E-06,  avg # of iterations =  5.0

     Threshold (ethr) on eigenvalues was too large:
     Diagonalizing with lowered threshold

     Davidson diagonalization with overlap
     ethr =  1.51E-08,  avg # of iterations =  3.0

     negative rho (up, down):  4.963E-08 0.000E+00

     total cpu time spent up to now is       57.7 secs

     total energy              =    -430.11826490 Ry
     estimated scf accuracy    <       0.00001247 Ry

     iteration #  2     ecut=    65.00 Ry     beta= 0.70
     Davidson diagonalization with overlap
     ethr =  2.40E-08,  avg # of iterations =  2.5

     total cpu time spent up to now is       58.7 secs

     total energy              =    -430.11826654 Ry
     estimated scf accuracy    <       0.00000971 Ry

     iteration #  3     ecut=    65.00 Ry     beta= 0.70
     Davidson diagonalization with overlap
     ethr =  1.87E-08,  avg # of iterations =  2.0

     total cpu time spent up to now is       59.7 secs

     total energy              =    -430.11826966 Ry
     estimated scf accuracy    <       0.00000030 Ry

     iteration #  4     ecut=    65.00 Ry     beta= 0.70
     Davidson diagonalization with overlap
     ethr =  5.75E-10,  avg # of iterations =  3.0

     total cpu time spent up to now is       60.7 secs

     total energy              =    -430.11826976 Ry
     estimated scf accuracy    <       0.00000008 Ry

     iteration #  5     ecut=    65.00 Ry     beta= 0.70
     Davidson diagonalization with overlap
     ethr =  1.48E-10,  avg # of iterations =  2.0

     total cpu time spent up to now is       61.7 secs

     total energy              =    -430.11826977 Ry
     estimated scf accuracy    <          1.8E-09 Ry

     iteration #  6     ecut=    65.00 Ry     beta= 0.70
     Davidson diagonalization with overlap
     ethr =  3.43E-12,  avg # of iterations =  3.0

     total cpu time spent up to now is       62.8 secs

     total energy              =    -430.11826977 Ry
     estimated scf accuracy    <          1.9E-10 Ry

     iteration #  7     ecut=    65.00 Ry     beta= 0.70
     Davidson diagonalization with overlap
     ethr =  3.67E-13,  avg # of iterations =  3.5

     total cpu time spent up to now is       63.9 secs

     total energy              =    -430.11826977 Ry
     estimated scf accuracy    <          4.9E-11 Ry

     iteration #  8     ecut=    65.00 Ry     beta= 0.70
     Davidson diagonalization with overlap
     ethr =  1.00E-13,  avg # of iterations =  2.0

     total cpu time spent up to now is       64.9 secs

     total energy              =    -430.11826977 Ry
     estimated scf accuracy    <          2.5E-12 Ry

     iteration #  9     ecut=    65.00 Ry     beta= 0.70
     Davidson diagonalization with overlap
     ethr =  1.00E-13,  avg # of iterations =  1.0

     total cpu time spent up to now is       65.7 secs

     End of self-consistent calculation

          k = 0.0000 0.0000 0.0000 ( 18643 PWs)   bands (ev):

  -117.7134-117.7134 -79.7061 -79.7061 -61.4394 -61.4394 -61.4387 -61.4387
   -23.8865 -23.8865 -18.5919 -18.5919 -18.5905 -18.5905 -18.5905 -18.5905
   -17.5910 -17.5910 -17.5907 -17.5907 -17.5907 -17.5907 -11.9843 -11.9843
   -10.8419 -10.8419 -10.8333 -10.8333 -10.7276 -10.7276 -10.7276 -10.7276
   -10.7275 -10.7275  -9.0190  -9.0190  -9.0134  -9.0134  -8.9940  -8.9940
    -7.2965  -7.2965  -7.2874  -7.2874  -7.1770  -7.1770  -6.6339  -6.6339
    -6.6337  -6.6337  -6.6105  -6.6105  -2.5682  -2.5682  -2.5614  -2.5614
    -2.5583  -2.5583  -1.4510  -1.4510   0.5086   0.5086

          k = 0.0000-0.5774 0.0000 ( 18732 PWs)   bands (ev):

  -117.7134-117.7134 -79.7061 -79.7061 -61.4394 -61.4394 -61.4387 -61.4387
   -22.4132 -22.4132 -22.4119 -22.4119 -19.5745 -19.5745 -19.5738 -19.5738
   -14.8325 -14.8325 -14.8323 -14.8323 -13.2900 -13.2900 -13.2896 -13.2896
   -11.7162 -11.7162 -11.7161 -11.7161 -10.8466 -10.8466 -10.8327 -10.8327
   -10.2460 -10.2460 -10.2085 -10.2085  -9.3366  -9.3366  -9.3365  -9.3365
    -9.0203  -9.0203  -8.9904  -8.9904  -8.9726  -8.9726  -7.0532  -7.0532
    -7.0181  -7.0181  -6.4393  -6.4393  -2.1320  -2.1320  -1.3974  -1.3974
    -1.3943  -1.3943  -0.3280  -0.3280   0.6595   0.6595

     the Fermi energy is    -5.5483 ev

!    total energy              =    -430.11826977 Ry
     estimated scf accuracy    <          2.7E-13 Ry
     smearing contrib. (-TS)   =      -0.00000000 Ry
     internal energy E=F+TS    =    -430.11826977 Ry

     The total energy is F=E-TS. E is the sum of the following terms:
     one-electron contribution =   -1745.50216787 Ry
     hartree contribution      =     868.31973738 Ry
     xc contribution           =     -89.63539378 Ry
     ewald contribution        =     536.74069429 Ry
     DFT-D3 Dispersion         =      -0.04113980 Ry

     convergence has been achieved in   9 iterations

     Forces acting on atoms (cartesian axes, Ry/au):

     atom    1 type  1   force =     0.00000000    0.00000330    0.00051814
     atom    2 type  1   force =     0.00000286   -0.00000165    0.00051814
     atom    3 type  1   force =     0.00000000    0.00000000    0.00084856
     atom    4 type  1   force =    -0.00000286   -0.00000165    0.00051814
     atom    5 type  1   force =    -0.00000397    0.00000229    0.00071536
     atom    6 type  1   force =    -0.00000000   -0.00000458    0.00071536
     atom    7 type  1   force =     0.00000397    0.00000229    0.00071536
     atom    8 type  1   force =     0.00000000    0.00000000    0.00087977
     atom    9 type  2   force =     0.00000000   -0.00000000   -0.00542883

     Total force =     0.005771     Total SCF correction =     0.000005


     Computing stress (Cartesian axis) and pressure

          total   stress  (Ry/bohr**3)                   (kbar)     P=        0.12
   0.00002187   0.00000000   0.00000000            3.22        0.00        0.00
   0.00000000   0.00002187  -0.00000000            0.00        3.22       -0.00
   0.00000000  -0.00000000  -0.00004127            0.00       -0.00       -6.07

     Energy error            =      1.4E-04 Ry
     Gradient error          =      5.4E-03 Ry/Bohr

     number of scf cycles    =   6
     number of bfgs steps    =   5

     energy             old  =    -430.1181319572 Ry
     energy             new  =    -430.1182697741 Ry

     CASE: energy            _new < energy            _old

     new trust radius        =       0.0332518604 bohr
     new conv_thr            =            1.4E-12 Ry


ATOMIC_POSITIONS (angstrom)
C                0.0000000000        0.0000565593        7.4332046066
C               -1.2279512676        2.1269299545        7.4332046066
C                2.4560000900       -0.0000000000        7.4357017432
C                1.2279507016        2.1269299545        7.4332046066
C                1.2279629586        0.7090074920        7.4348240016
C               -0.0000003780        2.8359015528        7.4348240016
C                3.6840368854        0.7090074920        7.4348240016
C                2.4559997120        2.8359442390        7.4304072134
Hg               2.4559997120        2.8359442390       11.0298052425



     Writing config-only to output data dir ./outputs/c_hg.save/ :
     XML data file
     NEW-OLD atomic charge density approx. for the potential

     negative rho (up, down):  3.118E-06 0.000E+00

     total cpu time spent up to now is       66.5 secs

     per-process dynamical memory:    80.4 Mb

     Self-consistent Calculation

     iteration #  1     ecut=    65.00 Ry     beta= 0.70
     Davidson diagonalization with overlap
     ethr =  1.00E-06,  avg # of iterations =  5.0

     Threshold (ethr) on eigenvalues was too large:
     Diagonalizing with lowered threshold

     Davidson diagonalization with overlap
     ethr =  4.72E-08,  avg # of iterations =  2.0

     negative rho (up, down):  2.136E-07 0.000E+00

     total cpu time spent up to now is       69.1 secs

     total energy              =    -430.11845662 Ry
     estimated scf accuracy    <       0.00002724 Ry

     iteration #  2     ecut=    65.00 Ry     beta= 0.70
     Davidson diagonalization with overlap
     ethr =  5.24E-08,  avg # of iterations =  2.5

     negative rho (up, down):  3.697E-08 0.000E+00

     total cpu time spent up to now is       70.1 secs

     total energy              =    -430.11845985 Ry
     estimated scf accuracy    <       0.00001966 Ry

     iteration #  3     ecut=    65.00 Ry     beta= 0.70
     Davidson diagonalization with overlap
     ethr =  3.78E-08,  avg # of iterations =  2.0

     total cpu time spent up to now is       71.0 secs

     total energy              =    -430.11846648 Ry
     estimated scf accuracy    <       0.00000080 Ry

     iteration #  4     ecut=    65.00 Ry     beta= 0.70
     Davidson diagonalization with overlap
     ethr =  1.54E-09,  avg # of iterations =  2.5

     total cpu time spent up to now is       72.1 secs

     total energy              =    -430.11846671 Ry
     estimated scf accuracy    <       0.00000019 Ry

     iteration #  5     ecut=    65.00 Ry     beta= 0.70
     Davidson diagonalization with overlap
     ethr =  3.65E-10,  avg # of iterations =  2.0

     total cpu time spent up to now is       73.0 secs

     total energy              =    -430.11846674 Ry
     estimated scf accuracy    <          3.8E-09 Ry

     iteration #  6     ecut=    65.00 Ry     beta= 0.70
     Davidson diagonalization with overlap
     ethr =  7.25E-12,  avg # of iterations =  3.5

     total cpu time spent up to now is       74.1 secs

     total energy              =    -430.11846675 Ry
     estimated scf accuracy    <          3.1E-10 Ry

     iteration #  7     ecut=    65.00 Ry     beta= 0.70
     Davidson diagonalization with overlap
     ethr =  5.98E-13,  avg # of iterations =  3.0

     total cpu time spent up to now is       75.2 secs

     total energy              =    -430.11846675 Ry
     estimated scf accuracy    <          6.8E-11 Ry

     iteration #  8     ecut=    65.00 Ry     beta= 0.70
     Davidson diagonalization with overlap
     ethr =  1.32E-13,  avg # of iterations =  2.5

     total cpu time spent up to now is       76.2 secs

     total energy              =    -430.11846675 Ry
     estimated scf accuracy    <          5.0E-12 Ry

     iteration #  9     ecut=    65.00 Ry     beta= 0.70
     Davidson diagonalization with overlap
     ethr =  1.00E-13,  avg # of iterations =  1.0

     total cpu time spent up to now is       77.0 secs

     End of self-consistent calculation

          k = 0.0000 0.0000 0.0000 ( 18643 PWs)   bands (ev):

  -117.7127-117.7127 -79.7054 -79.7054 -61.4387 -61.4387 -61.4380 -61.4380
   -23.8942 -23.8942 -18.5996 -18.5996 -18.5981 -18.5981 -18.5981 -18.5981
   -17.5987 -17.5987 -17.5984 -17.5984 -17.5984 -17.5984 -11.9933 -11.9933
   -10.8413 -10.8413 -10.8327 -10.8327 -10.7353 -10.7353 -10.7353 -10.7353
   -10.7351 -10.7351  -9.0184  -9.0184  -9.0130  -9.0130  -8.9935  -8.9935
    -7.3042  -7.3042  -7.2950  -7.2950  -7.1775  -7.1775  -6.6415  -6.6415
    -6.6413  -6.6413  -6.6160  -6.6160  -2.5768  -2.5768  -2.5697  -2.5697
    -2.5665  -2.5665  -1.4482  -1.4482   0.4930   0.4930

          k = 0.0000-0.5774 0.0000 ( 18732 PWs)   bands (ev):

  -117.7127-117.7127 -79.7054 -79.7054 -61.4387 -61.4387 -61.4380 -61.4380
   -22.4209 -22.4209 -22.4195 -22.4195 -19.5822 -19.5822 -19.5815 -19.5815
   -14.8402 -14.8402 -14.8400 -14.8400 -13.2977 -13.2977 -13.2972 -13.2972
   -11.7238 -11.7238 -11.7237 -11.7237 -10.8471 -10.8471 -10.8321 -10.8321
   -10.2554 -10.2554 -10.2159 -10.2159  -9.3442  -9.3442  -9.3441  -9.3441
    -9.0199  -9.0199  -8.9894  -8.9894  -8.9718  -8.9718  -7.0622  -7.0622
    -7.0257  -7.0257  -6.4356  -6.4356  -2.1313  -2.1313  -1.4053  -1.4053
    -1.4021  -1.4021  -0.3250  -0.3250   0.6602   0.6602

     the Fermi energy is    -5.5476 ev

!    total energy              =    -430.11846675 Ry
     estimated scf accuracy    <          4.8E-13 Ry
     smearing contrib. (-TS)   =      -0.00000000 Ry
     internal energy E=F+TS    =    -430.11846675 Ry

     The total energy is F=E-TS. E is the sum of the following terms:
     one-electron contribution =   -1753.54812471 Ry
     hartree contribution      =     872.33431402 Ry
     xc contribution           =     -89.63557270 Ry
     ewald contribution        =     540.77228463 Ry
     DFT-D3 Dispersion         =      -0.04136798 Ry

     convergence has been achieved in   9 iterations

     Forces acting on atoms (cartesian axes, Ry/au):

     atom    1 type  1   force =     0.00000000    0.00000463    0.00044203
     atom    2 type  1   force =     0.00000401   -0.00000231    0.00044203
     atom    3 type  1   force =     0.00000000    0.00000000    0.00090109
     atom    4 type  1   force =    -0.00000401   -0.00000231    0.00044203
     atom    5 type  1   force =    -0.00000757    0.00000437    0.00065585
     atom    6 type  1   force =    -0.00000000   -0.00000874    0.00065585
     atom    7 type  1   force =     0.00000757    0.00000437    0.00065585
     atom    8 type  1   force =    -0.00000000   -0.00000000    0.00091506
     atom    9 type  2   force =     0.00000000    0.00000000   -0.00510979

     Total force =     0.005444     Total SCF correction =     0.000005


     Computing stress (Cartesian axis) and pressure

          total   stress  (Ry/bohr**3)                   (kbar)     P=        0.14
   0.00002183   0.00000000   0.00000000            3.21        0.00        0.00
   0.00000000   0.00002183   0.00000000            0.00        3.21        0.00
   0.00000000   0.00000000  -0.00004090            0.00        0.00       -6.02

     Energy error            =      2.0E-04 Ry
     Gradient error          =      5.1E-03 Ry/Bohr

     number of scf cycles    =   7
     number of bfgs steps    =   6

     energy             old  =    -430.1182697741 Ry
     energy             new  =    -430.1184667466 Ry

     CASE: energy            _new < energy            _old

     new trust radius        =       0.0498777906 bohr
     new conv_thr            =            2.0E-12 Ry


ATOMIC_POSITIONS (angstrom)
C                0.0000000000        0.0000638215        7.4364832469
C               -1.2279449783        2.1269263234        7.4364832469
C                2.4560000900       -0.0000000000        7.4390794282
C                1.2279444123        2.1269263234        7.4364832469
C                1.2279586753        0.7090099650        7.4382540745
C               -0.0000003780        2.8358966068        7.4382540745
C                3.6840411687        0.7090099650        7.4382540745
C                2.4559997120        2.8359442390        7.4332975789
Hg               2.4559997120        2.8359442390       11.0034110524



     Writing config-only to output data dir ./outputs/c_hg.save/ :
     XML data file
     NEW-OLD atomic charge density approx. for the potential

     negative rho (up, down):  6.358E-06 0.000E+00

     total cpu time spent up to now is       77.7 secs

     per-process dynamical memory:    80.4 Mb

     Self-consistent Calculation

     iteration #  1     ecut=    65.00 Ry     beta= 0.70
     Davidson diagonalization with overlap
     ethr =  1.00E-06,  avg # of iterations =  6.0

     negative rho (up, down):  6.260E-07 0.000E+00

     total cpu time spent up to now is       79.5 secs

     total energy              =    -430.11872004 Ry
     estimated scf accuracy    <       0.00005615 Ry

     iteration #  2     ecut=    65.00 Ry     beta= 0.70
     Davidson diagonalization with overlap
     ethr =  1.08E-07,  avg # of iterations =  2.5

     negative rho (up, down):  1.397E-07 0.000E+00

     total cpu time spent up to now is       80.6 secs

     total energy              =    -430.11872741 Ry
     estimated scf accuracy    <       0.00002968 Ry

     iteration #  3     ecut=    65.00 Ry     beta= 0.70
     Davidson diagonalization with overlap
     ethr =  5.71E-08,  avg # of iterations =  2.0

     total cpu time spent up to now is       81.5 secs

     total energy              =    -430.11873819 Ry
     estimated scf accuracy    <       0.00000236 Ry

     iteration #  4     ecut=    65.00 Ry     beta= 0.70
     Davidson diagonalization with overlap
     ethr =  4.54E-09,  avg # of iterations =  2.0

     total cpu time spent up to now is       82.5 secs

     total energy              =    -430.11873886 Ry
     estimated scf accuracy    <       0.00000033 Ry

     iteration #  5     ecut=    65.00 Ry     beta= 0.70
     Davidson diagonalization with overlap
     ethr =  6.31E-10,  avg # of iterations =  2.0

     total cpu time spent up to now is       83.5 secs

     total energy              =    -430.11873893 Ry
     estimated scf accuracy    <          5.2E-09 Ry

     iteration #  6     ecut=    65.00 Ry     beta= 0.70
     Davidson diagonalization with overlap
     ethr =  9.93E-12,  avg # of iterations =  3.0

     total cpu time spent up to now is       84.5 secs

     total energy              =    -430.11873894 Ry
     estimated scf accuracy    <          6.4E-10 Ry

     iteration #  7     ecut=    65.00 Ry     beta= 0.70
     Davidson diagonalization with overlap
     ethr =  1.23E-12,  avg # of iterations =  2.5

     total cpu time spent up to now is       85.6 secs

     total energy              =    -430.11873894 Ry
     estimated scf accuracy    <          1.1E-10 Ry

     iteration #  8     ecut=    65.00 Ry     beta= 0.70
     Davidson diagonalization with overlap
     ethr =  2.13E-13,  avg # of iterations =  2.5

     total cpu time spent up to now is       86.6 secs

     total energy              =    -430.11873894 Ry
     estimated scf accuracy    <          5.2E-12 Ry

     iteration #  9     ecut=    65.00 Ry     beta= 0.70
     Davidson diagonalization with overlap
     ethr =  1.00E-13,  avg # of iterations =  1.5

     total cpu time spent up to now is       87.4 secs

     End of self-consistent calculation

          k = 0.0000 0.0000 0.0000 ( 18643 PWs)   bands (ev):

  -117.7114-117.7114 -79.7040 -79.7040 -61.4373 -61.4373 -61.4366 -61.4366
   -23.9059 -23.9059 -18.6114 -18.6114 -18.6097 -18.6097 -18.6097 -18.6097
   -17.6103 -17.6103 -17.6100 -17.6100 -17.6100 -17.6100 -12.0072 -12.0072
   -10.8401 -10.8401 -10.8315 -10.8315 -10.7470 -10.7470 -10.7469 -10.7469
   -10.7466 -10.7466  -9.0172  -9.0172  -9.0123  -9.0123  -8.9926  -8.9926
    -7.3159  -7.3159  -7.3067  -7.3067  -7.1782  -7.1782  -6.6532  -6.6532
    -6.6529  -6.6529  -6.6240  -6.6240  -2.5899  -2.5899  -2.5824  -2.5824
    -2.5789  -2.5789  -1.4432  -1.4432   0.4695   0.4695

          k = 0.0000-0.5774 0.0000 ( 18732 PWs)   bands (ev):

  -117.7114-117.7114 -79.7040 -79.7040 -61.4374 -61.4374 -61.4366 -61.4366
   -22.4327 -22.4327 -22.4311 -22.4311 -19.5939 -19.5939 -19.5931 -19.5931
   -14.8519 -14.8519 -14.8516 -14.8516 -13.3094 -13.3094 -13.3089 -13.3089
   -11.7355 -11.7355 -11.7354 -11.7354 -10.8477 -10.8477 -10.8311 -10.8311
   -10.2698 -10.2698 -10.2271 -10.2271  -9.3559  -9.3559  -9.3558  -9.3558
    -9.0189  -9.0189  -8.9877  -8.9877  -8.9702  -8.9702  -7.0761  -7.0761
    -7.0373  -7.0373  -6.4296  -6.4296  -2.1300  -2.1300  -1.4174  -1.4174
    -1.4140  -1.4140  -0.3197  -0.3197   0.6616   0.6616

     the Fermi energy is    -5.5463 ev

!    total energy              =    -430.11873894 Ry
     estimated scf accuracy    <          4.9E-13 Ry
     smearing contrib. (-TS)   =      -0.00000000 Ry
     internal energy E=F+TS    =    -430.11873894 Ry

     The total energy is F=E-TS. E is the sum of the following terms:
     one-electron contribution =   -1765.61693116 Ry
     hartree contribution      =     878.35613695 Ry
     xc contribution           =     -89.63588986 Ry
     ewald contribution        =     546.81965727 Ry
     DFT-D3 Dispersion         =      -0.04171214 Ry

     convergence has been achieved in   9 iterations

     Forces acting on atoms (cartesian axes, Ry/au):

     atom    1 type  1   force =     0.00000000    0.00000543    0.00034598
     atom    2 type  1   force =     0.00000470   -0.00000271    0.00034598
     atom    3 type  1   force =     0.00000000   -0.00000000    0.00093384
     atom    4 type  1   force =    -0.00000470   -0.00000271    0.00034598
     atom    5 type  1   force =    -0.00000407    0.00000235    0.00057572
     atom    6 type  1   force =     0.00000000   -0.00000470    0.00057572
     atom    7 type  1   force =     0.00000407    0.00000235    0.00057572
     atom    8 type  1   force =     0.00000000    0.00000000    0.00089885
     atom    9 type  2   force =     0.00000000    0.00000000   -0.00459782

     Total force =     0.004917     Total SCF correction =     0.000004


     Computing stress (Cartesian axis) and pressure

          total   stress  (Ry/bohr**3)                   (kbar)     P=        0.16
   0.00002178   0.00000000   0.00000000            3.20        0.00        0.00
   0.00000000   0.00002178   0.00000000            0.00        3.20        0.00
   0.00000000   0.00000000  -0.00004021            0.00        0.00       -5.91

     Energy error            =      2.7E-04 Ry
     Gradient error          =      4.6E-03 Ry/Bohr

     number of scf cycles    =   8
     number of bfgs steps    =   7

     energy             old  =    -430.1184667466 Ry
     energy             new  =    -430.1187389355 Ry

     CASE: energy            _new < energy            _old

     new trust radius        =       0.0748166859 bohr
     new conv_thr            =            2.7E-12 Ry


ATOMIC_POSITIONS (angstrom)
C               -0.0000000000        0.0000757753        7.4413611491
C               -1.2279346260        2.1269203465        7.4413611491
C                2.4560000900       -0.0000000000        7.4442503677
C                1.2279340600        2.1269203465        7.4413611491
C                1.2279548335        0.7090121831        7.4433854820
C               -0.0000003780        2.8358921708        7.4433854820
C                3.6840450105        0.7090121831        7.4433854820
C                2.4559997120        2.8359442390        7.4376899954
Hg               2.4559997120        2.8359442390       10.9638197673



     Writing config-only to output data dir ./outputs/c_hg.save/ :
     XML data file
     NEW-OLD atomic charge density approx. for the potential

     negative rho (up, down):  1.200E-05 0.000E+00

     total cpu time spent up to now is       88.1 secs

     per-process dynamical memory:    80.4 Mb

     Self-consistent Calculation

     iteration #  1     ecut=    65.00 Ry     beta= 0.70
     Davidson diagonalization with overlap
     ethr =  1.00E-06,  avg # of iterations =  6.0

     negative rho (up, down):  1.422E-06 0.000E+00

     total cpu time spent up to now is       90.1 secs

     total energy              =    -430.11903732 Ry
     estimated scf accuracy    <       0.00013801 Ry

     iteration #  2     ecut=    65.00 Ry     beta= 0.70
     Davidson diagonalization with overlap
     ethr =  2.65E-07,  avg # of iterations =  3.0

     negative rho (up, down):  4.879E-07 0.000E+00

     total cpu time spent up to now is       91.2 secs

     total energy              =    -430.11905409 Ry
     estimated scf accuracy    <       0.00010563 Ry

     iteration #  3     ecut=    65.00 Ry     beta= 0.70
     Davidson diagonalization with overlap
     ethr =  2.03E-07,  avg # of iterations =  2.0

     total cpu time spent up to now is       92.2 secs

     total energy              =    -430.11908905 Ry
     estimated scf accuracy    <       0.00000408 Ry

     iteration #  4     ecut=    65.00 Ry     beta= 0.70
     Davidson diagonalization with overlap
     ethr =  7.85E-09,  avg # of iterations =  2.5

     total cpu time spent up to now is       93.2 secs

     total energy              =    -430.11909025 Ry
     estimated scf accuracy    <       0.00000108 Ry

     iteration #  5     ecut=    65.00 Ry     beta= 0.70
     Davidson diagonalization with overlap
     ethr =  2.08E-09,  avg # of iterations =  2.0

     total cpu time spent up to now is       94.1 secs

     total energy              =    -430.11909047 Ry
     estimated scf accuracy    <       0.00000002 Ry

     iteration #  6     ecut=    65.00 Ry     beta= 0.70
     Davidson diagonalization with overlap
     ethr =  3.21E-11,  avg # of iterations =  3.5

     total cpu time spent up to now is       95.2 secs

     total energy              =    -430.11909048 Ry
     estimated scf accuracy    <          1.6E-09 Ry

     iteration #  7     ecut=    65.00 Ry     beta= 0.70
     Davidson diagonalization with overlap
     ethr =  3.05E-12,  avg # of iterations =  2.5

     total cpu time spent up to now is       96.3 secs

     total energy              =    -430.11909048 Ry
     estimated scf accuracy    <          3.6E-10 Ry

     iteration #  8     ecut=    65.00 Ry     beta= 0.70
     Davidson diagonalization with overlap
     ethr =  6.99E-13,  avg # of iterations =  2.5

     total cpu time spent up to now is       97.3 secs

     total energy              =    -430.11909048 Ry
     estimated scf accuracy    <          2.2E-11 Ry

     iteration #  9     ecut=    65.00 Ry     beta= 0.70
     Davidson diagonalization with overlap
     ethr =  1.00E-13,  avg # of iterations =  2.0

     total cpu time spent up to now is       98.3 secs

     End of self-consistent calculation

          k = 0.0000 0.0000 0.0000 ( 18643 PWs)   bands (ev):

  -117.7087-117.7087 -79.7013 -79.7013 -61.4347 -61.4347 -61.4339 -61.4339
   -23.9239 -23.9239 -18.6296 -18.6296 -18.6277 -18.6277 -18.6277 -18.6277
   -17.6284 -17.6284 -17.6280 -17.6280 -17.6280 -17.6280 -12.0287 -12.0287
   -10.8377 -10.8377 -10.8293 -10.8293 -10.7650 -10.7650 -10.7648 -10.7648
   -10.7644 -10.7644  -9.0148  -9.0148  -9.0107  -9.0107  -8.9907  -8.9907
    -7.3340  -7.3340  -7.3248  -7.3248  -7.1793  -7.1793  -6.6711  -6.6711
    -6.6708  -6.6708  -6.6356  -6.6356  -2.6104  -2.6104  -2.6019  -2.6019
    -2.5982  -2.5982  -1.4342  -1.4342   0.4342   0.4342

          k = 0.0000-0.5774 0.0000 ( 18732 PWs)   bands (ev):

  -117.7087-117.7087 -79.7013 -79.7013 -61.4347 -61.4347 -61.4339 -61.4339
   -22.4509 -22.4509 -22.4490 -22.4490 -19.6120 -19.6120 -19.6111 -19.6111
   -14.8699 -14.8699 -14.8696 -14.8696 -13.3274 -13.3274 -13.3268 -13.3268
   -11.7536 -11.7536 -11.7534 -11.7534 -10.8487 -10.8487 -10.8289 -10.8289
   -10.2922 -10.2922 -10.2442 -10.2442  -9.3739  -9.3739  -9.3738  -9.3738
    -9.0170  -9.0170  -8.9844  -8.9844  -8.9672  -8.9672  -7.0975  -7.0975
    -7.0552  -7.0552  -6.4192  -6.4192  -2.1272  -2.1272  -1.4361  -1.4361
    -1.4324  -1.4324  -0.3100  -0.3100   0.6645   0.6645

     the Fermi energy is    -5.5434 ev

!    total energy              =    -430.11909048 Ry
     estimated scf accuracy    <          1.7E-12 Ry
     smearing contrib. (-TS)   =      -0.00000000 Ry
     internal energy E=F+TS    =    -430.11909048 Ry

     The total energy is F=E-TS. E is the sum of the following terms:
     one-electron contribution =   -1783.71951971 Ry
     hartree contribution      =     887.38849818 Ry
     xc contribution           =     -89.63648158 Ry
     ewald contribution        =     555.89064359 Ry
     DFT-D3 Dispersion         =      -0.04223096 Ry

     convergence has been achieved in   9 iterations

     Forces acting on atoms (cartesian axes, Ry/au):

     atom    1 type  1   force =     0.00000000    0.00001015    0.00021405
     atom    2 type  1   force =     0.00000879   -0.00000508    0.00021405
     atom    3 type  1   force =     0.00000000   -0.00000000    0.00092974
     atom    4 type  1   force =    -0.00000879   -0.00000508    0.00021405
     atom    5 type  1   force =    -0.00000849    0.00000490    0.00046548
     atom    6 type  1   force =    -0.00000000   -0.00000980    0.00046548
     atom    7 type  1   force =     0.00000849    0.00000490    0.00046548
     atom    8 type  1   force =     0.00000000    0.00000000    0.00077675
     atom    9 type  2   force =     0.00000000    0.00000000   -0.00374508

     Total force =     0.004035     Total SCF correction =     0.000013


     Computing stress (Cartesian axis) and pressure

          total   stress  (Ry/bohr**3)                   (kbar)     P=        0.23
   0.00002171   0.00000000   0.00000000            3.19        0.00        0.00
   0.00000000   0.00002171  -0.00000000            0.00        3.19       -0.00
   0.00000000  -0.00000000  -0.00003880            0.00       -0.00       -5.71

     Energy error            =      3.5E-04 Ry
     Gradient error          =      3.7E-03 Ry/Bohr

     number of scf cycles    =   9
     number of bfgs steps    =   8

     energy             old  =    -430.1187389355 Ry
     energy             new  =    -430.1190904819 Ry

     CASE: energy            _new < energy            _old

     new trust radius        =       0.1122250288 bohr
     new conv_thr            =            3.5E-12 Ry


ATOMIC_POSITIONS (angstrom)
C               -0.0000000000        0.0000992236        7.4486187963
C               -1.2279143192        2.1269086224        7.4486187963
C                2.4560000900       -0.0000000000        7.4521664020
C                1.2279137532        2.1269086223        7.4486187963
C                1.2279442405        0.7090182990        7.4510780454
C               -0.0000003780        2.8358799390        7.4510780454
C                3.6840556035        0.7090182990        7.4510780454
C                2.4559997120        2.8359442390        7.4443102571
Hg               2.4559997120        2.8359442390       10.9044328395



     Writing config-only to output data dir ./outputs/c_hg.save/ :
     XML data file
     NEW-OLD atomic charge density approx. for the potential

     negative rho (up, down):  2.072E-05 0.000E+00

     total cpu time spent up to now is       99.0 secs

     per-process dynamical memory:    80.4 Mb

     Self-consistent Calculation

     iteration #  1     ecut=    65.00 Ry     beta= 0.70
     Davidson diagonalization with overlap
     ethr =  1.00E-06,  avg # of iterations =  7.0

     negative rho (up, down):  2.788E-06 0.000E+00

     total cpu time spent up to now is      101.1 secs

     total energy              =    -430.11936186 Ry
     estimated scf accuracy    <       0.00030115 Ry

     iteration #  2     ecut=    65.00 Ry     beta= 0.70
     Davidson diagonalization with overlap
     ethr =  5.79E-07,  avg # of iterations =  4.5

     negative rho (up, down):  1.078E-06 0.000E+00

     total cpu time spent up to now is      102.2 secs

     total energy              =    -430.11939486 Ry
     estimated scf accuracy    <       0.00020992 Ry

     iteration #  3     ecut=    65.00 Ry     beta= 0.70
     Davidson diagonalization with overlap
     ethr =  4.04E-07,  avg # of iterations =  2.5

     total cpu time spent up to now is      103.3 secs

     total energy              =    -430.11946704 Ry
     estimated scf accuracy    <       0.00001146 Ry

     iteration #  4     ecut=    65.00 Ry     beta= 0.70
     Davidson diagonalization with overlap
     ethr =  2.20E-08,  avg # of iterations =  2.5

     total cpu time spent up to now is      104.3 secs

     total energy              =    -430.11947043 Ry
     estimated scf accuracy    <       0.00000310 Ry

     iteration #  5     ecut=    65.00 Ry     beta= 0.70
     Davidson diagonalization with overlap
     ethr =  5.95E-09,  avg # of iterations =  2.0

     total cpu time spent up to now is      105.2 secs

     total energy              =    -430.11947105 Ry
     estimated scf accuracy    <       0.00000002 Ry

     iteration #  6     ecut=    65.00 Ry     beta= 0.70
     Davidson diagonalization with overlap
     ethr =  4.58E-11,  avg # of iterations =  3.5

     total cpu time spent up to now is      106.4 secs

     total energy              =    -430.11947106 Ry
     estimated scf accuracy    <          3.5E-09 Ry

     iteration #  7     ecut=    65.00 Ry     beta= 0.70
     Davidson diagonalization with overlap
     ethr =  6.81E-12,  avg # of iterations =  2.5

     total cpu time spent up to now is      107.4 secs

     total energy              =    -430.11947107 Ry
     estimated scf accuracy    <          8.8E-10 Ry

     iteration #  8     ecut=    65.00 Ry     beta= 0.70
     Davidson diagonalization with overlap
     ethr =  1.70E-12,  avg # of iterations =  2.0

     total cpu time spent up to now is      108.4 secs

     total energy              =    -430.11947107 Ry
     estimated scf accuracy    <          3.2E-11 Ry

     iteration #  9     ecut=    65.00 Ry     beta= 0.70
     Davidson diagonalization with overlap
     ethr =  1.00E-13,  avg # of iterations =  3.0

     total cpu time spent up to now is      109.4 secs

     End of self-consistent calculation

          k = 0.0000 0.0000 0.0000 ( 18643 PWs)   bands (ev):

  -117.7033-117.7033 -79.6960 -79.6960 -61.4293 -61.4293 -61.4284 -61.4284
   -23.9524 -23.9524 -18.6584 -18.6584 -18.6560 -18.6560 -18.6560 -18.6560
   -17.6568 -17.6568 -17.6564 -17.6564 -17.6564 -17.6564 -12.0631 -12.0631
   -10.8330 -10.8330 -10.8256 -10.8256 -10.7933 -10.7933 -10.7929 -10.7929
   -10.7915 -10.7915  -9.0101  -9.0101  -9.0073  -9.0073  -8.9867  -8.9867
    -7.3625  -7.3625  -7.3533  -7.3533  -7.1813  -7.1813  -6.6992  -6.6992
    -6.6988  -6.6988  -6.6514  -6.6514  -2.6426  -2.6426  -2.6327  -2.6327
    -2.6285  -2.6285  -1.4173  -1.4173   0.3814   0.3814

          k = 0.0000-0.5774 0.0000 ( 18732 PWs)   bands (ev):

  -117.7033-117.7033 -79.6960 -79.6960 -61.4294 -61.4294 -61.4284 -61.4284
   -22.4796 -22.4796 -22.4772 -22.4772 -19.6406 -19.6406 -19.6394 -19.6394
   -14.8984 -14.8984 -14.8980 -14.8980 -13.3558 -13.3558 -13.3551 -13.3551
   -11.7820 -11.7820 -11.7818 -11.7818 -10.8503 -10.8503 -10.8244 -10.8244
   -10.3277 -10.3277 -10.2705 -10.2705  -9.4024  -9.4024  -9.4022  -9.4022
    -9.0131  -9.0131  -8.9783  -8.9783  -8.9612  -8.9612  -7.1312  -7.1312
    -7.0832  -7.0832  -6.4006  -6.4006  -2.1212  -2.1212  -1.4656  -1.4656
    -1.4614  -1.4614  -0.2915  -0.2915   0.6707   0.6707

     the Fermi energy is    -5.5371 ev

!    total energy              =    -430.11947107 Ry
     estimated scf accuracy    <          2.0E-12 Ry
     smearing contrib. (-TS)   =      -0.00000000 Ry
     internal energy E=F+TS    =    -430.11947107 Ry

     The total energy is F=E-TS. E is the sum of the following terms:
     one-electron contribution =   -1810.87116387 Ry
     hartree contribution      =     900.93547522 Ry
     xc contribution           =     -89.63764062 Ry
     ewald contribution        =     569.49686584 Ry
     DFT-D3 Dispersion         =      -0.04300763 Ry

     convergence has been achieved in   9 iterations

[...]
     atom    8 type  1   force =     0.00000000   -0.00000000    0.00042559
     atom    9 type  2   force =     0.00000000   -0.00000000   -0.00222581

     Total force =     0.002479     Total SCF correction =     0.000012


     Computing stress (Cartesian axis) and pressure

          total   stress  (Ry/bohr**3)                   (kbar)     P=        0.36
   0.00002161   0.00000000   0.00000000            3.18        0.00        0.00
   0.00000000   0.00002161  -0.00000000            0.00        3.18       -0.00
   0.00000000   0.00000000  -0.00003580            0.00        0.00       -5.27

     Energy error            =      3.8E-04 Ry
     Gradient error          =      2.2E-03 Ry/Bohr

     number of scf cycles    =  10
     number of bfgs steps    =   9

     energy             old  =    -430.1190904819 Ry
     energy             new  =    -430.1194710656 Ry

     CASE: energy            _new < energy            _old

     new trust radius        =       0.1651995070 bohr
     new conv_thr            =            2.2E-12 Ry


ATOMIC_POSITIONS (angstrom)
C               -0.0000000000        0.0001501245        7.4591598391
C               -1.2278702377        2.1268831719        7.4591598391
C                2.4560000900       -0.0000000000        7.4642015599
C                1.2278696717        2.1268831719        7.4591598391
C                1.2279310034        0.7090259414        7.4624395127
C               -0.0000003780        2.8358646541        7.4624395127
C                3.6840688406        0.7090259414        7.4624395127
C                2.4559997120        2.8359442390        7.4539873830
Hg               2.4559997120        2.8359442390       10.8170130252



     Writing config-only to output data dir ./outputs/c_hg.save/ :
     XML data file
     NEW-OLD atomic charge density approx. for the potential

     negative rho (up, down):  3.410E-05 0.000E+00

     total cpu time spent up to now is      110.2 secs

     per-process dynamical memory:    80.4 Mb

     Self-consistent Calculation

     iteration #  1     ecut=    65.00 Ry     beta= 0.70
     Davidson diagonalization with overlap
     ethr =  1.00E-06,  avg # of iterations =  7.0

     negative rho (up, down):  4.669E-06 0.000E+00

     total cpu time spent up to now is      112.5 secs

     total energy              =    -430.11933155 Ry
     estimated scf accuracy    <       0.00071789 Ry

     iteration #  2     ecut=    65.00 Ry     beta= 0.70
     Davidson diagonalization with overlap
     ethr =  1.38E-06,  avg # of iterations =  4.5

     negative rho (up, down):  2.058E-06 0.000E+00

     total cpu time spent up to now is      113.6 secs

     total energy              =    -430.11942151 Ry
     estimated scf accuracy    <       0.00063347 Ry

     iteration #  3     ecut=    65.00 Ry     beta= 0.70
     Davidson diagonalization with overlap
     ethr =  1.22E-06,  avg # of iterations =  3.5

     negative rho (up, down):  4.646E-08 0.000E+00

     total cpu time spent up to now is      114.7 secs

     total energy              =    -430.11962332 Ry
     estimated scf accuracy    <       0.00001981 Ry

     iteration #  4     ecut=    65.00 Ry     beta= 0.70
     Davidson diagonalization with overlap
     ethr =  3.81E-08,  avg # of iterations =  3.0

     total cpu time spent up to now is      115.7 secs

     total energy              =    -430.11962969 Ry
     estimated scf accuracy    <       0.00001057 Ry

     iteration #  5     ecut=    65.00 Ry     beta= 0.70
     Davidson diagonalization with overlap
     ethr =  2.03E-08,  avg # of iterations =  2.0

     total cpu time spent up to now is      116.7 secs

     total energy              =    -430.11963160 Ry
     estimated scf accuracy    <       0.00000012 Ry

     iteration #  6     ecut=    65.00 Ry     beta= 0.70
     Davidson diagonalization with overlap
     ethr =  2.27E-10,  avg # of iterations =  4.0

     total cpu time spent up to now is      117.8 secs

     total energy              =    -430.11963166 Ry
     estimated scf accuracy    <       0.00000001 Ry

     iteration #  7     ecut=    65.00 Ry     beta= 0.70
     Davidson diagonalization with overlap
     ethr =  2.34E-11,  avg # of iterations =  2.5

     total cpu time spent up to now is      118.9 secs

     total energy              =    -430.11963166 Ry
     estimated scf accuracy    <          2.6E-09 Ry

     iteration #  8     ecut=    65.00 Ry     beta= 0.70
     Davidson diagonalization with overlap
     ethr =  4.95E-12,  avg # of iterations =  2.0

     total cpu time spent up to now is      119.9 secs

     total energy              =    -430.11963166 Ry
     estimated scf accuracy    <          1.8E-10 Ry

     iteration #  9     ecut=    65.00 Ry     beta= 0.70
     Davidson diagonalization with overlap
     ethr =  3.47E-13,  avg # of iterations =  4.0

     total cpu time spent up to now is      121.0 secs

     total energy              =    -430.11963166 Ry
     estimated scf accuracy    <          1.2E-11 Ry

     iteration # 10     ecut=    65.00 Ry     beta= 0.70
     Davidson diagonalization with overlap
     ethr =  1.00E-13,  avg # of iterations =  2.0

     total cpu time spent up to now is      121.9 secs

     total energy              =    -430.11963166 Ry
     estimated scf accuracy    <          2.9E-12 Ry

     iteration # 11     ecut=    65.00 Ry     beta= 0.70
     Davidson diagonalization with overlap
     ethr =  1.00E-13,  avg # of iterations =  1.0

     total cpu time spent up to now is      122.8 secs

     End of self-consistent calculation

          k = 0.0000 0.0000 0.0000 ( 18643 PWs)   bands (ev):

  -117.6927-117.6927 -79.6855 -79.6855 -61.4190 -61.4190 -61.4179 -61.4179
   -23.9980 -23.9980 -18.7045 -18.7045 -18.7012 -18.7012 -18.7012 -18.7012
   -17.7024 -17.7024 -17.7017 -17.7017 -17.7017 -17.7017 -12.1189 -12.1189
   -10.8424 -10.8424 -10.8407 -10.8407 -10.8387 -10.8387 -10.8210 -10.8210
   -10.8107 -10.8107  -9.0018  -9.0018  -8.9999  -8.9999  -8.9790  -8.9790
    -7.4080  -7.4080  -7.3989  -7.3989  -7.1870  -7.1870  -6.7438  -6.7438
    -6.7433  -6.7433  -6.6702  -6.6702  -2.6944  -2.6944  -2.6819  -2.6819
    -2.6769  -2.6769  -1.3855  -1.3855   0.3047   0.3047

          k = 0.0000-0.5774 0.0000 ( 18732 PWs)   bands (ev):

  -117.6927-117.6927 -79.6855 -79.6855 -61.4190 -61.4190 -61.4179 -61.4179
   -22.5257 -22.5257 -22.5222 -22.5222 -19.6863 -19.6863 -19.6846 -19.6846
   -14.9439 -14.9439 -14.9434 -14.9434 -13.4013 -13.4013 -13.4004 -13.4004
   -11.8276 -11.8276 -11.8271 -11.8271 -10.8549 -10.8549 -10.8156 -10.8156
   -10.3845 -10.3845 -10.3107 -10.3107  -9.4478  -9.4478  -9.4475  -9.4475
    -9.0057  -9.0057  -8.9670  -8.9670  -8.9495  -8.9495  -7.1849  -7.1849
    -7.1275  -7.1275  -6.3666  -6.3666  -2.1087  -2.1087  -1.5128  -1.5128
    -1.5078  -1.5078  -0.2555  -0.2555   0.6840   0.6840

     the Fermi energy is    -5.5241 ev

!    total energy              =    -430.11963166 Ry
     estimated scf accuracy    <          1.1E-13 Ry
     smearing contrib. (-TS)   =      -0.00000000 Ry
     internal energy E=F+TS    =    -430.11963166 Ry

     The total energy is F=E-TS. E is the sum of the following terms:
     one-electron contribution =   -1850.83146491 Ry
     hartree contribution      =     920.87115337 Ry
     xc contribution           =     -89.63999801 Ry
     ewald contribution        =     589.52479480 Ry
     DFT-D3 Dispersion         =      -0.04411691 Ry

     convergence has been achieved in  11 iterations

     Forces acting on atoms (cartesian axes, Ry/au):

     atom    1 type  1   force =     0.00000000    0.00003758   -0.00034331
     atom    2 type  1   force =     0.00003255   -0.00001879   -0.00034331
     atom    3 type  1   force =     0.00000000    0.00000000    0.00058843
     atom    4 type  1   force =    -0.00003255   -0.00001879   -0.00034331
     atom    5 type  1   force =    -0.00001189    0.00000686    0.00006257
     atom    6 type  1   force =    -0.00000000   -0.00001372    0.00006257
     atom    7 type  1   force =     0.00001189    0.00000686    0.00006257
     atom    8 type  1   force =     0.00000000   -0.00000000   -0.00041765
     atom    9 type  2   force =     0.00000000    0.00000000    0.00067144

     Total force =     0.001158     Total SCF correction =     0.000004


     Computing stress (Cartesian axis) and pressure

          total   stress  (Ry/bohr**3)                   (kbar)     P=        0.68
   0.00002154   0.00000000   0.00000000            3.17        0.00        0.00
   0.00000000   0.00002154  -0.00000000            0.00        3.17       -0.00
   0.00000000   0.00000000  -0.00002919            0.00        0.00       -4.29

     Energy error            =      1.6E-04 Ry
     Gradient error          =      6.7E-04 Ry/Bohr

     number of scf cycles    =  11
     number of bfgs steps    =  10

     energy             old  =    -430.1194710656 Ry
     energy             new  =    -430.1196316602 Ry

     CASE: energy            _new < energy            _old

     new trust radius        =       0.0373671823 bohr
     new conv_thr            =            1.0E-12 Ry


ATOMIC_POSITIONS (angstrom)
C               -0.0000000000        0.0001561547        7.4566454481
C               -1.2278650154        2.1268801568        7.4566454481
C                2.4560000900       -0.0000000000        7.4618173020
C                1.2278644494        2.1268801568        7.4566454481
C                1.2279289710        0.7090271148        7.4599315516
C               -0.0000003780        2.8358623073        7.4599315516
C                3.6840708730        0.7090271148        7.4599315516
C                2.4559997120        2.8359442390        7.4516648360
Hg               2.4559997120        2.8359442390       10.8367868865



     Writing config-only to output data dir ./outputs/c_hg.save/ :
     XML data file
     NEW-OLD atomic charge density approx. for the potential

     negative rho (up, down):  2.666E-06 0.000E+00

     total cpu time spent up to now is      123.5 secs

     per-process dynamical memory:    80.4 Mb

     Self-consistent Calculation

     iteration #  1     ecut=    65.00 Ry     beta= 0.70
     Davidson diagonalization with overlap
     ethr =  1.00E-06,  avg # of iterations =  5.5

     Threshold (ethr) on eigenvalues was too large:
     Diagonalizing with lowered threshold

     Davidson diagonalization with overlap
     ethr =  6.24E-08,  avg # of iterations =  1.5

     negative rho (up, down):  2.595E-07 0.000E+00

     total cpu time spent up to now is      126.1 secs

     total energy              =    -430.11963049 Ry
     estimated scf accuracy    <       0.00003508 Ry

     iteration #  2     ecut=    65.00 Ry     beta= 0.70
     Davidson diagonalization with overlap
     ethr =  6.75E-08,  avg # of iterations =  2.5

     negative rho (up, down):  6.201E-08 0.000E+00

     total cpu time spent up to now is      127.1 secs

     total energy              =    -430.11963441 Ry
     estimated scf accuracy    <       0.00002773 Ry

     iteration #  3     ecut=    65.00 Ry     beta= 0.70
     Davidson diagonalization with overlap
     ethr =  5.33E-08,  avg # of iterations =  2.0

     total cpu time spent up to now is      128.1 secs

     total energy              =    -430.11964379 Ry
     estimated scf accuracy    <       0.00000128 Ry

     iteration #  4     ecut=    65.00 Ry     beta= 0.70
     Davidson diagonalization with overlap
     ethr =  2.46E-09,  avg # of iterations =  3.0

     total cpu time spent up to now is      129.1 secs

     total energy              =    -430.11964417 Ry
     estimated scf accuracy    <       0.00000050 Ry

     iteration #  5     ecut=    65.00 Ry     beta= 0.70
     Davidson diagonalization with overlap
     ethr =  9.53E-10,  avg # of iterations =  2.0

     total cpu time spent up to now is      130.1 secs

     total energy              =    -430.11964426 Ry
     estimated scf accuracy    <          3.8E-09 Ry

     iteration #  6     ecut=    65.00 Ry     beta= 0.70
     Davidson diagonalization with overlap
     ethr =  7.29E-12,  avg # of iterations =  3.5

     total cpu time spent up to now is      131.2 secs

     total energy              =    -430.11964426 Ry
     estimated scf accuracy    <          7.2E-10 Ry

     iteration #  7     ecut=    65.00 Ry     beta= 0.70
     Davidson diagonalization with overlap
     ethr =  1.38E-12,  avg # of iterations =  2.0

     total cpu time spent up to now is      132.2 secs

     total energy              =    -430.11964426 Ry
     estimated scf accuracy    <          1.3E-10 Ry

     iteration #  8     ecut=    65.00 Ry     beta= 0.70
     Davidson diagonalization with overlap
     ethr =  2.50E-13,  avg # of iterations =  2.0

     total cpu time spent up to now is      133.2 secs

     total energy              =    -430.11964426 Ry
     estimated scf accuracy    <          6.9E-12 Ry

     iteration #  9     ecut=    65.00 Ry     beta= 0.70
     Davidson diagonalization with overlap
     ethr =  1.00E-13,  avg # of iterations =  2.0

     total cpu time spent up to now is      134.1 secs

     End of self-consistent calculation

          k = 0.0000 0.0000 0.0000 ( 18643 PWs)   bands (ev):

  -117.6954-117.6954 -79.6881 -79.6881 -61.4216 -61.4216 -61.4206 -61.4206
   -23.9872 -23.9872 -18.6934 -18.6934 -18.6906 -18.6906 -18.6905 -18.6905
   -17.6917 -17.6917 -17.6909 -17.6909 -17.6909 -17.6909 -12.1056 -12.1056
   -10.8333 -10.8333 -10.8323 -10.8323 -10.8281 -10.8281 -10.8210 -10.8210
   -10.8113 -10.8113  -9.0037  -9.0037  -9.0020  -9.0020  -8.9809  -8.9809
    -7.3973  -7.3973  -7.3881  -7.3881  -7.1851  -7.1851  -6.7332  -6.7332
    -6.7328  -6.7328  -6.6665  -6.6665  -2.6821  -2.6821  -2.6702  -2.6702
    -2.6655  -2.6655  -1.3934  -1.3934   0.3219   0.3219

          k = 0.0000-0.5774 0.0000 ( 18732 PWs)   bands (ev):

  -117.6954-117.6954 -79.6881 -79.6881 -61.4216 -61.4216 -61.4206 -61.4206
   -22.5147 -22.5147 -22.5116 -22.5116 -19.6754 -19.6754 -19.6739 -19.6739
   -14.9331 -14.9331 -14.9326 -14.9326 -13.3905 -13.3905 -13.3897 -13.3897
   -11.8169 -11.8169 -11.8163 -11.8163 -10.8535 -10.8535 -10.8178 -10.8178
   -10.3710 -10.3710 -10.3014 -10.3014  -9.4370  -9.4370  -9.4368  -9.4368
    -9.0075  -9.0075  -8.9698  -8.9698  -8.9524  -8.9524  -7.1721  -7.1721
    -7.1171  -7.1171  -6.3751  -6.3751  -2.1118  -2.1118  -1.5017  -1.5017
    -1.4967  -1.4967  -0.2647  -0.2647   0.6805   0.6805

     the Fermi energy is    -5.5275 ev

!    total energy              =    -430.11964426 Ry
     estimated scf accuracy    <          5.6E-13 Ry
     smearing contrib. (-TS)   =      -0.00000000 Ry
     internal energy E=F+TS    =    -430.11964426 Ry

     The total energy is F=E-TS. E is the sum of the following terms:
     one-electron contribution =   -1841.79258008 Ry
     hartree contribution      =     916.36211133 Ry
     xc contribution           =     -89.63938395 Ry
     ewald contribution        =     584.99408080 Ry
     DFT-D3 Dispersion         =      -0.04387236 Ry

     convergence has been achieved in   9 iterations

     Forces acting on atoms (cartesian axes, Ry/au):

     atom    1 type  1   force =    -0.00000000   -0.00002930   -0.00017509
     atom    2 type  1   force =    -0.00002537    0.00001465   -0.00017509
     atom    3 type  1   force =     0.00000000   -0.00000000    0.00050084
     atom    4 type  1   force =     0.00002537    0.00001465   -0.00017509
     atom    5 type  1   force =     0.00000765   -0.00000442    0.00009208
     atom    6 type  1   force =     0.00000000    0.00000884    0.00009208
     atom    7 type  1   force =    -0.00000765   -0.00000442    0.00009208
     atom    8 type  1   force =     0.00000000    0.00000000   -0.00018446
     atom    9 type  2   force =     0.00000000    0.00000000   -0.00006735

     Total force =     0.000640     Total SCF correction =     0.000009


     Computing stress (Cartesian axis) and pressure

          total   stress  (Ry/bohr**3)                   (kbar)     P=        0.60
   0.00002154   0.00000000   0.00000000            3.17        0.00        0.00
   0.00000000   0.00002154   0.00000000            0.00        3.17        0.00
   0.00000000   0.00000000  -0.00003094            0.00        0.00       -4.55

     Energy error            =      1.3E-05 Ry
     Gradient error          =      5.0E-04 Ry/Bohr

     bfgs converged in  12 scf cycles and  11 bfgs steps
     (criteria: energy <  1.0E-04 Ry, force <  1.0E-03 Ry/Bohr)

     End of BFGS Geometry Optimization

     Final energy             =    -430.1196442627 Ry

     File ./outputs/c_hg.bfgs deleted, as requested
Begin final coordinates

ATOMIC_POSITIONS (angstrom)
C               -0.0000000000        0.0001561547        7.4566454481
C               -1.2278650154        2.1268801568        7.4566454481
C                2.4560000900       -0.0000000000        7.4618173020
C                1.2278644494        2.1268801568        7.4566454481
C                1.2279289710        0.7090271148        7.4599315516
C               -0.0000003780        2.8358623073        7.4599315516
C                3.6840708730        0.7090271148        7.4599315516
C                2.4559997120        2.8359442390        7.4516648360
Hg               2.4559997120        2.8359442390       10.8367868865
End final coordinates



     Writing all to output data dir ./outputs/c_hg.save/ :
     XML data file, charge density, pseudopotentials, collected wavefunctions

     init_run     :      0.60s CPU      0.65s WALL (       1 calls)
     electrons    :    120.95s CPU    125.21s WALL (      12 calls)
     update_pot   :      0.23s CPU      0.24s WALL (      11 calls)
     forces       :      2.26s CPU      2.30s WALL (      12 calls)
     force_dftd3  :      0.47s CPU      0.48s WALL (      12 calls)
     stress       :      6.11s CPU      6.24s WALL (      12 calls)
     stres_dftd3  :      0.49s CPU      0.50s WALL (      12 calls)

     Called by init_run:
     wfcinit      :      0.40s CPU      0.45s WALL (       1 calls)
     potinit      :      0.03s CPU      0.03s WALL (       1 calls)
     hinit0       :      0.03s CPU      0.03s WALL (       1 calls)

     Called by electrons:
     c_bands      :    103.56s CPU    106.89s WALL (     115 calls)
     sum_band     :     13.39s CPU     14.01s WALL (     115 calls)
     v_of_rho     :      1.68s CPU      1.77s WALL (     120 calls)
     mix_rho      :      1.82s CPU      1.97s WALL (     115 calls)
     energy_dftd3 :      0.32s CPU      0.33s WALL (      12 calls)

     Called by c_bands:
     init_us_2    :      1.16s CPU      1.19s WALL (     510 calls)
     cegterg      :     96.63s CPU     99.92s WALL (     230 calls)

     Called by *egterg:
     cdiaghg      :      1.77s CPU      1.80s WALL (     885 calls)
     h_psi        :     73.78s CPU     76.93s WALL (     923 calls)
     g_psi        :      0.26s CPU      0.27s WALL (     691 calls)

     Called by h_psi:
     h_psi:calbec :      6.88s CPU      6.98s WALL (     923 calls)
     vloc_psi     :     61.62s CPU     64.61s WALL (     923 calls)
                                        0.00s GPU  (     923 calls)
     add_vuspsi   :      4.81s CPU      4.84s WALL (     923 calls)

     General routines
     calbec       :     11.64s CPU     11.79s WALL (    1331 calls)
     fft          :      2.08s CPU      2.19s WALL (    2211 calls)
     ffts         :      0.29s CPU      0.32s WALL (     460 calls)
     fftw         :     68.37s CPU     71.64s WALL (  179828 calls)

     Parallel routines

     PWSCF        :   2m10.28s CPU   2m14.81s WALL


   This run was terminated on:  13:18: 2  19Sep2025            

=------------------------------------------------------------------------------=
   JOB DONE.
=------------------------------------------------------------------------------=
