
     Program PWSCF v.7.5 starts on 19Sep2025 at 13:35:52 
        Git branch: dftd4
        Last git commit: 234d1ec8279940b25d9bc7437067330cd0755cf9
        Last git commit date: Fri Jul 18 14:39:03 2025 +0300
        Last git commit subject: Merge branch 'develop' of gitlab.com:miro.ilias/q-

     This program is part of the open-source Quantum ESPRESSO suite
     for quantum simulation of materials; please cite
         "P. Giannozzi et al., J. Phys.:Condens. Matter 21 395502 (2009);
         "P. Giannozzi et al., J. Phys.:Condens. Matter 29 465901 (2017);
         "P. Giannozzi et al., J. Chem. Phys. 152 154105 (2020);
          URL http://www.quantum-espresso.org", 
     in publications or presentations arising from this work. More details at
     http://www.quantum-espresso.org/quote

     Parallel version (MPI), running on    10 processors

     MPI processes distributed on     1 nodes
     15005 MiB available memory on the printing compute node when the environment starts

     Waiting for input...
     Reading input from standard input
Warning: card &CELL ignored
Warning: card &FCP ignored
Warning: card &RISM ignored

     Current dimensions of program PWSCF are:
     Max number of different atomic species (ntypx) = 10
     Max number of k-points (npk) =  40000
     Max angular momentum in pseudopotentials (lmaxx) =  4
     Message from routine set_vdw_corr:
     entering vdw_corr = DFT-D3
     Message from routine setup:
     using ibrav=0 with symmetry is DISCOURAGED, use correct ibrav instead

     R & G space division:  proc/nbgrp/npool/nimage =      10
     Subspace diagonalization in iterative solution of the eigenvalue problem:
     a serial algorithm will be used


     Parallelization info
     --------------------
     sticks:   dense  smooth     PW     G-vecs:    dense   smooth      PW
     Min         153     153     42                14957    14957    2152
     Max         154     154     43                14970    14970    2165
     Sum        1531    1531    421               149599   149599   21533

     Using Slab Decomposition



     bravais-lattice index     =            0
     lattice parameter (alat)  =       9.2823  a.u.
     unit-cell volume          =    2115.1209 (a.u.)^3
     number of atoms/cell      =            9
     number of atomic types    =            2
     number of electrons       =        52.00
     number of Kohn-Sham states=           62
     kinetic-energy cutoff     =      65.0000  Ry
     charge density cutoff     =     260.0000  Ry
     scf convergence threshold =      1.0E-10
     mixing beta               =       0.7000
     number of iterations used =            8  plain     mixing
     energy convergence thresh.=      1.0E-08
     force convergence thresh. =      1.0E-04
     Exchange-correlation= PBE
                           (   1   4   3   4   0   0   0)
     nstep                     =           50

     Non magnetic calculation with spin-orbit


     celldm(1)=   9.282335  celldm(2)=   0.000000  celldm(3)=   0.000000
     celldm(4)=   0.000000  celldm(5)=   0.000000  celldm(6)=   0.000000

     crystal axes: (cart. coord. in units of alat)
               a(1) = (   1.000000   0.000000   0.000000 )  
               a(2) = (  -0.500000   0.866025   0.000000 )  
               a(3) = (   0.000000   0.000000   3.053746 )  

     reciprocal axes: (cart. coord. in units 2 pi/alat)
               b(1) = (  1.000000  0.577350 -0.000000 )  
               b(2) = (  0.000000  1.154701  0.000000 )  
               b(3) = (  0.000000 -0.000000  0.327467 )  


     PseudoPot. # 1 for C  read from file:
     ./C_r.upf
     MD5 check sum: d80ec9912146af6c4c1760317d1f95e9
     Pseudo is Norm-conserving + core correction, Zval =  4.0
     Generated using ONCVPSP code by D. R. Hamann
     Using radial grid of 1248 points,  6 beta functions with: 
                l(1) =   0
                l(2) =   0
                l(3) =   1
                l(4) =   1
                l(5) =   1
                l(6) =   1

     PseudoPot. # 2 for Hg read from file:
     ./Hg-sp_r.upf
     MD5 check sum: d85b3e284848a6ef6fce73cef7b59184
     Pseudo is Norm-conserving + core correction, Zval = 20.0
     Generated using ONCVPSP code by D. R. Hamann
     Using radial grid of 1246 points, 12 beta functions with: 
                l(1) =   0
                l(2) =   0
                l(3) =   1
                l(4) =   1
                l(5) =   1
                l(6) =   1
                l(7) =   2
                l(8) =   2
                l(9) =   2
               l(10) =   2
               l(11) =   3
               l(12) =   3

     atomic species   valence    mass     pseudopotential
     C                 4.00    12.01100     C ( 1.00)
     Hg               20.00   200.59200     Hg( 1.00)

      6 Sym. Ops. (no inversion) found ( 4 have fractional translation)



   Cartesian axes

     site n.     atom                  positions (alat units)
         1        C      tau(   1) = (   0.0000000   0.0000096   1.5119700  )
         2        C      tau(   2) = (  -0.2499917   0.4330079   1.5119700  )
         3        C      tau(   3) = (   0.5000000   0.0000000   1.5126067  )
         4        C      tau(   4) = (   0.2499916   0.4330079   1.5119700  )
         5        C      tau(   5) = (   0.2499928   0.1443417   1.5122979  )
         6        C      tau(   6) = (  -0.0000001   0.5773419   1.5122979  )
         7        C      tau(   7) = (   0.7500072   0.1443417   1.5122979  )
         8        C      tau(   8) = (   0.4999999   0.5773502   1.5117386  )
         9        Hg     tau(   9) = (   0.4999999   0.5773502   2.2554563  )

     --------------------------------------------
     DFT-D3 Dispersion Correction (3-body terms):
     --------------------------------------------
       Reference C6 values for interpolation: 

         atom   Coordination number   C6
         C          0.000            98.23
         C          0.987            86.49
         C          1.998            58.72
         C          2.999            51.56
         C          3.984            36.41
         Hg         0.000           724.15
         Hg         1.990           597.72

       Values used:

         atom   Coordination number  R0_AB[au]  C6      C8
         C          3.332            2.750     47.90   1385.21
         C          3.332            2.750     47.90   1385.21
         C          3.327            2.750     48.01   1388.45
         C          3.332            2.750     47.90   1385.21
         C          3.328            2.750     47.99   1387.92
         C          3.328            2.750     47.99   1387.92
         C          3.328            2.750     47.99   1387.92
         C          3.343            2.750     47.66   1378.46
         Hg         0.141            3.175    724.15  72691.39

         Molecular C6 ( Ry / a.u.^6 ) =      6734.07


     number of k points=     2  Gaussian smearing, width (Ry)=  0.0100
                       cart. coord. in units 2pi/alat
        k(    1) = (   0.0000000   0.0000000   0.0000000), wk =   0.2500000
        k(    2) = (   0.0000000  -0.5773503   0.0000000), wk =   0.7500000

     Dense  grid:   149599 G-vectors     FFT dimensions: (  48,  48, 150)

     Estimated max dynamical RAM per process >      70.52 MB

     Estimated total dynamical RAM >     705.21 MB
 ----2D----2D----2D----2D----2D----2D----2D----2D----2D----2D----2D----2D
  The code is running with the 2D cutoff
  Please refer to:
  Sohier, T., Calandra, M., & Mauri, F. (2017), 
  Density functional perturbation theory for gated two-dimensional heterostructures:
  Theoretical developments and application to flexural phonons in graphene.
  Physical Review B, 96(7), 75448. https://doi.org/10.1103/PhysRevB.96.075448
 ----2D----2D----2D----2D----2D----2D----2D----2D----2D----2D----2D----2D

     Initial potential from superposition of free atoms

     starting charge      51.9996, renormalised to      52.0000

     negative rho (up, down):  1.208E-05 0.000E+00
     Starting wfcs are   84 randomized atomic wfcs

     total cpu time spent up to now is        0.9 secs

     per-process dynamical memory:    75.2 Mb

     Self-consistent Calculation

     iteration #  1     ecut=    65.00 Ry     beta= 0.70
     Davidson diagonalization with overlap
     ethr =  1.00E-02,  avg # of iterations =  3.5

     total cpu time spent up to now is        2.0 secs

     total energy              =    -429.95076825 Ry
     estimated scf accuracy    <       0.79005451 Ry

     iteration #  2     ecut=    65.00 Ry     beta= 0.70
     Davidson diagonalization with overlap
     ethr =  1.52E-03,  avg # of iterations = 10.0

     total cpu time spent up to now is        3.4 secs

     total energy              =    -430.08051653 Ry
     estimated scf accuracy    <       0.06016577 Ry

     iteration #  3     ecut=    65.00 Ry     beta= 0.70
     Davidson diagonalization with overlap
     ethr =  1.16E-04,  avg # of iterations =  7.0

     total cpu time spent up to now is        4.7 secs

     total energy              =    -430.10043348 Ry
     estimated scf accuracy    <       0.06533335 Ry

     iteration #  4     ecut=    65.00 Ry     beta= 0.70
     Davidson diagonalization with overlap
     ethr =  1.16E-04,  avg # of iterations =  4.0

     total cpu time spent up to now is        5.8 secs

     total energy              =    -430.11729535 Ry
     estimated scf accuracy    <       0.00140978 Ry

     iteration #  5     ecut=    65.00 Ry     beta= 0.70
     Davidson diagonalization with overlap
     ethr =  2.71E-06,  avg # of iterations =  8.5

     total cpu time spent up to now is        7.1 secs

     total energy              =    -430.11767729 Ry
     estimated scf accuracy    <       0.00113669 Ry

     iteration #  6     ecut=    65.00 Ry     beta= 0.70
     Davidson diagonalization with overlap
     ethr =  2.19E-06,  avg # of iterations =  4.5

     total cpu time spent up to now is        8.2 secs

     total energy              =    -430.11788111 Ry
     estimated scf accuracy    <       0.00001652 Ry

     iteration #  7     ecut=    65.00 Ry     beta= 0.70
     Davidson diagonalization with overlap
     ethr =  3.18E-08,  avg # of iterations =  3.5

     total cpu time spent up to now is        9.4 secs

     total energy              =    -430.11788828 Ry
     estimated scf accuracy    <       0.00000355 Ry

     iteration #  8     ecut=    65.00 Ry     beta= 0.70
     Davidson diagonalization with overlap
     ethr =  6.82E-09,  avg # of iterations =  3.0

     total cpu time spent up to now is       10.5 secs

     total energy              =    -430.11788914 Ry
     estimated scf accuracy    <       0.00000057 Ry

     iteration #  9     ecut=    65.00 Ry     beta= 0.70
     Davidson diagonalization with overlap
     ethr =  1.09E-09,  avg # of iterations =  2.0

     total cpu time spent up to now is       11.5 secs

     total energy              =    -430.11788924 Ry
     estimated scf accuracy    <       0.00000003 Ry

     iteration # 10     ecut=    65.00 Ry     beta= 0.70
     Davidson diagonalization with overlap
     ethr =  6.56E-11,  avg # of iterations =  3.5

     total cpu time spent up to now is       12.7 secs

     total energy              =    -430.11788926 Ry
     estimated scf accuracy    <          5.5E-09 Ry

     iteration # 11     ecut=    65.00 Ry     beta= 0.70
     Davidson diagonalization with overlap
     ethr =  1.06E-11,  avg # of iterations =  2.5

     total cpu time spent up to now is       13.7 secs

     total energy              =    -430.11788926 Ry
     estimated scf accuracy    <          8.5E-10 Ry

     iteration # 12     ecut=    65.00 Ry     beta= 0.70
     Davidson diagonalization with overlap
     ethr =  1.63E-12,  avg # of iterations =  3.0

     total cpu time spent up to now is       14.7 secs

     End of self-consistent calculation

          k = 0.0000 0.0000 0.0000 ( 18643 PWs)   bands (ev):

  -117.7143-117.7143 -79.7069 -79.7069 -61.4402 -61.4402 -61.4396 -61.4396
   -23.8731 -23.8731 -18.5783 -18.5783 -18.5771 -18.5771 -18.5771 -18.5771
   -17.5776 -17.5776 -17.5773 -17.5773 -17.5773 -17.5773 -11.9686 -11.9686
   -10.8427 -10.8427 -10.8340 -10.8340 -10.7142 -10.7142 -10.7142 -10.7142
   -10.7141 -10.7141  -9.0198  -9.0198  -9.0136  -9.0136  -8.9944  -8.9944
    -7.2831  -7.2831  -7.2739  -7.2739  -7.1759  -7.1759  -6.6205  -6.6205
    -6.6203  -6.6203  -6.6005  -6.6005  -2.5531  -2.5531  -2.5469  -2.5469
    -2.5442  -2.5442  -1.4550  -1.4550   0.5362   0.5362

          k = 0.0000-0.5774 0.0000 ( 18732 PWs)   bands (ev):

  -117.7143-117.7143 -79.7069 -79.7069 -61.4402 -61.4402 -61.4396 -61.4396
   -22.3997 -22.3997 -22.3986 -22.3986 -19.5611 -19.5611 -19.5605 -19.5605
   -14.8191 -14.8191 -14.8189 -14.8189 -13.2766 -13.2766 -13.2762 -13.2762
   -11.7027 -11.7027 -11.7027 -11.7027 -10.8456 -10.8456 -10.8332 -10.8332
   -10.2296 -10.2296 -10.1954 -10.1954  -9.3232  -9.3232  -9.3230  -9.3230
    -9.0208  -9.0208  -8.9917  -8.9917  -8.9737  -8.9737  -7.0373  -7.0373
    -7.0047  -7.0047  -6.4450  -6.4450  -2.1326  -2.1326  -1.3836  -1.3836
    -1.3806  -1.3806  -0.3322  -0.3322   0.6589   0.6589

     the Fermi energy is    -5.5490 ev

!    total energy              =    -430.11788926 Ry
     estimated scf accuracy    <          1.6E-11 Ry
     smearing contrib. (-TS)   =      -0.00000000 Ry
     internal energy E=F+TS    =    -430.11788926 Ry

     The total energy is F=E-TS. E is the sum of the following terms:
     one-electron contribution =   -1731.14422133 Ry
     hartree contribution      =     861.15581933 Ry
     xc contribution           =     -89.63514075 Ry
     ewald contribution        =     529.54638956 Ry
     DFT-D3 Dispersion         =      -0.04073608 Ry

     convergence has been achieved in  12 iterations

     Forces acting on atoms (cartesian axes, Ry/au):

     atom    1 type  1   force =    -0.00000000    0.00000007    0.00089394
     atom    2 type  1   force =     0.00000006   -0.00000003    0.00089394
     atom    3 type  1   force =     0.00000000   -0.00000000    0.00061581
     atom    4 type  1   force =    -0.00000006   -0.00000003    0.00089394
     atom    5 type  1   force =     0.00000292   -0.00000169    0.00076461
     atom    6 type  1   force =     0.00000000    0.00000337    0.00076461
     atom    7 type  1   force =    -0.00000292   -0.00000169    0.00076461
     atom    8 type  1   force =     0.00000000   -0.00000000    0.00037968
     atom    9 type  2   force =    -0.00000000   -0.00000000   -0.00597115

     Total force =     0.006351     Total SCF correction =     0.000018


     Computing stress (Cartesian axis) and pressure

          total   stress  (Ry/bohr**3)                   (kbar)     P=        0.11
   0.00002194   0.00000000   0.00000000            3.23        0.00        0.00
   0.00000000   0.00002194  -0.00000000            0.00        3.23       -0.00
   0.00000000   0.00000000  -0.00004172            0.00        0.00       -6.14


     BFGS Geometry Optimization
     Energy error            =      4.0E-05 Ry
     Gradient error          =      6.0E-03 Ry/Bohr

     number of scf cycles    =   1
     number of bfgs steps    =   0

     energy             new  =    -430.1178892629 Ry

     new trust radius        =       0.0059711534 bohr
     new conv_thr            =            1.0E-10 Ry


ATOMIC_POSITIONS (angstrom)
C                0.0000000000        0.0000470933        7.4272698769
C               -1.2279594653        2.1269346875        7.4272698769
C                2.4560000900       -0.0000000000        7.4302503334
C                1.2279588993        2.1269346875        7.4272698769
C                1.2279660502        0.7090057071        7.4288122894
C               -0.0000003780        2.8359051227        7.4288122894
C                3.6840337938        0.7090057071        7.4288122894
C                2.4559997120        2.8359442390        7.4258611248
Hg               2.4559997120        2.8359442390       11.0756420665



     Writing config-only to output data dir ./outputs/c_hg.save/ :
     XML data file
     NEW-OLD atomic charge density approx. for the potential

     negative rho (up, down):  2.668E-08 0.000E+00

     total cpu time spent up to now is       15.5 secs

     per-process dynamical memory:    80.1 Mb

     Self-consistent Calculation

     iteration #  1     ecut=    65.00 Ry     beta= 0.70
     Davidson diagonalization with overlap
     ethr =  1.00E-06,  avg # of iterations =  4.0

     Threshold (ethr) on eigenvalues was too large:
     Diagonalizing with lowered threshold

     Davidson diagonalization with overlap
     ethr =  1.28E-09,  avg # of iterations =  4.0

     total cpu time spent up to now is       18.0 secs

     total energy              =    -430.11792895 Ry
     estimated scf accuracy    <       0.00000092 Ry

     iteration #  2     ecut=    65.00 Ry     beta= 0.70
     Davidson diagonalization with overlap
     ethr =  1.77E-09,  avg # of iterations =  2.5

     total cpu time spent up to now is       19.0 secs

     total energy              =    -430.11792907 Ry
     estimated scf accuracy    <       0.00000071 Ry

     iteration #  3     ecut=    65.00 Ry     beta= 0.70
     Davidson diagonalization with overlap
     ethr =  1.37E-09,  avg # of iterations =  2.0

     total cpu time spent up to now is       19.9 secs

     total energy              =    -430.11792930 Ry
     estimated scf accuracy    <       0.00000002 Ry

     iteration #  4     ecut=    65.00 Ry     beta= 0.70
     Davidson diagonalization with overlap
     ethr =  4.26E-11,  avg # of iterations =  3.0

     total cpu time spent up to now is       21.0 secs

     total energy              =    -430.11792931 Ry
     estimated scf accuracy    <          5.1E-09 Ry

     iteration #  5     ecut=    65.00 Ry     beta= 0.70
     Davidson diagonalization with overlap
     ethr =  9.77E-12,  avg # of iterations =  2.0

     total cpu time spent up to now is       21.9 secs

     total energy              =    -430.11792931 Ry
     estimated scf accuracy    <          2.0E-10 Ry

     iteration #  6     ecut=    65.00 Ry     beta= 0.70
     Davidson diagonalization with overlap
     ethr =  3.92E-13,  avg # of iterations =  3.5

     total cpu time spent up to now is       22.9 secs

     End of self-consistent calculation

          k = 0.0000 0.0000 0.0000 ( 18643 PWs)   bands (ev):

  -117.7143-117.7143 -79.7069 -79.7069 -61.4402 -61.4402 -61.4395 -61.4395
   -23.8745 -23.8745 -18.5797 -18.5797 -18.5785 -18.5785 -18.5785 -18.5785
   -17.5789 -17.5789 -17.5787 -17.5787 -17.5787 -17.5787 -11.9702 -11.9702
   -10.8426 -10.8426 -10.8339 -10.8339 -10.7156 -10.7156 -10.7156 -10.7156
   -10.7154 -10.7154  -9.0198  -9.0198  -9.0136  -9.0136  -8.9944  -8.9944
    -7.2844  -7.2844  -7.2753  -7.2753  -7.1760  -7.1760  -6.6219  -6.6219
    -6.6217  -6.6217  -6.6015  -6.6015  -2.5546  -2.5546  -2.5483  -2.5483
    -2.5456  -2.5456  -1.4547  -1.4547   0.5334   0.5334

          k = 0.0000-0.5774 0.0000 ( 18732 PWs)   bands (ev):

  -117.7143-117.7143 -79.7069 -79.7069 -61.4402 -61.4402 -61.4395 -61.4395
   -22.4011 -22.4011 -22.3999 -22.3999 -19.5624 -19.5624 -19.5618 -19.5618
   -14.8204 -14.8204 -14.8202 -14.8202 -13.2780 -13.2780 -13.2776 -13.2776
   -11.7041 -11.7041 -11.7040 -11.7040 -10.8457 -10.8457 -10.8332 -10.8332
   -10.2312 -10.2312 -10.1967 -10.1967  -9.3245  -9.3245  -9.3244  -9.3244
    -9.0208  -9.0208  -8.9916  -8.9916  -8.9736  -8.9736  -7.0389  -7.0389
    -7.0060  -7.0060  -6.4445  -6.4445  -2.1325  -2.1325  -1.3850  -1.3850
    -1.3820  -1.3820  -0.3318  -0.3318   0.6589   0.6589

     the Fermi energy is    -5.5489 ev

!    total energy              =    -430.11792931 Ry
     estimated scf accuracy    <          1.1E-11 Ry
     smearing contrib. (-TS)   =      -0.00000000 Ry
     internal energy E=F+TS    =    -430.11792931 Ry

     The total energy is F=E-TS. E is the sum of the following terms:
     one-electron contribution =   -1732.58904335 Ry
     hartree contribution      =     861.87672820 Ry
     xc contribution           =     -89.63516356 Ry
     ewald contribution        =     530.27032589 Ry
     DFT-D3 Dispersion         =      -0.04077648 Ry

     convergence has been achieved in   6 iterations

     Forces acting on atoms (cartesian axes, Ry/au):

     atom    1 type  1   force =     0.00000000    0.00000205    0.00080112
     atom    2 type  1   force =     0.00000178   -0.00000103    0.00080112
     atom    3 type  1   force =     0.00000000   -0.00000000    0.00063966
     atom    4 type  1   force =    -0.00000178   -0.00000103    0.00080112
     atom    5 type  1   force =    -0.00000261    0.00000151    0.00078389
     atom    6 type  1   force =    -0.00000000   -0.00000301    0.00078389
     atom    7 type  1   force =     0.00000261    0.00000151    0.00078389
     atom    8 type  1   force =     0.00000000   -0.00000000    0.00050824
     atom    9 type  2   force =     0.00000000   -0.00000000   -0.00590292

     Total force =     0.006267     Total SCF correction =     0.000009


     Computing stress (Cartesian axis) and pressure

          total   stress  (Ry/bohr**3)                   (kbar)     P=        0.11
   0.00002194   0.00000000   0.00000000            3.23        0.00        0.00
   0.00000000   0.00002194  -0.00000000            0.00        3.23       -0.00
   0.00000000   0.00000000  -0.00004168            0.00        0.00       -6.13

     Energy error            =      4.0E-05 Ry
     Gradient error          =      5.9E-03 Ry/Bohr

     number of scf cycles    =   2
     number of bfgs steps    =   1

     energy             old  =    -430.1178892629 Ry
     energy             new  =    -430.1179293069 Ry

     CASE: energy            _new < energy            _old


     WARNING: bfgs curvature condition failed, Theta= 0.811
     new trust radius        =       0.0065682687 bohr
     new conv_thr            =            5.9E-11 Ry


ATOMIC_POSITIONS (angstrom)
C                0.0000000000        0.0000473969        7.4277792369
C               -1.2279592024        2.1269345357        7.4277792369
C                2.4560000900       -0.0000000000        7.4306129059
C                1.2279586364        2.1269345357        7.4277792369
C                1.2279670180        0.7090051484        7.4292610957
C               -0.0000003780        2.8359062401        7.4292610957
C                3.6840328260        0.7090051484        7.4292610957
C                2.4559997120        2.8359442390        7.4260998316
Hg               2.4559997120        2.8359442390       11.0721662884



     Writing config-only to output data dir ./outputs/c_hg.save/ :
     XML data file
     NEW-OLD atomic charge density approx. for the potential

     negative rho (up, down):  4.166E-08 0.000E+00

     total cpu time spent up to now is       23.7 secs

     per-process dynamical memory:    80.1 Mb

     Self-consistent Calculation

     iteration #  1     ecut=    65.00 Ry     beta= 0.70
     Davidson diagonalization with overlap
     ethr =  1.00E-06,  avg # of iterations =  4.0

     Threshold (ethr) on eigenvalues was too large:
     Diagonalizing with lowered threshold

     Davidson diagonalization with overlap
     ethr =  1.52E-09,  avg # of iterations =  4.0

     total cpu time spent up to now is       26.2 secs

     total energy              =    -430.11797242 Ry
     estimated scf accuracy    <       0.00000110 Ry

     iteration #  2     ecut=    65.00 Ry     beta= 0.70
     Davidson diagonalization with overlap
     ethr =  2.12E-09,  avg # of iterations =  2.5

     total cpu time spent up to now is       27.2 secs

     total energy              =    -430.11797256 Ry
     estimated scf accuracy    <       0.00000084 Ry

     iteration #  3     ecut=    65.00 Ry     beta= 0.70
     Davidson diagonalization with overlap
     ethr =  1.62E-09,  avg # of iterations =  2.0

     total cpu time spent up to now is       28.1 secs

     total energy              =    -430.11797284 Ry
     estimated scf accuracy    <       0.00000003 Ry

     iteration #  4     ecut=    65.00 Ry     beta= 0.70
     Davidson diagonalization with overlap
     ethr =  5.22E-11,  avg # of iterations =  3.0

     total cpu time spent up to now is       29.1 secs

     total energy              =    -430.11797285 Ry
     estimated scf accuracy    <          8.0E-09 Ry

     iteration #  5     ecut=    65.00 Ry     beta= 0.70
     Davidson diagonalization with overlap
     ethr =  1.55E-11,  avg # of iterations =  2.0

     total cpu time spent up to now is       30.1 secs

     total energy              =    -430.11797285 Ry
     estimated scf accuracy    <          2.1E-10 Ry

     iteration #  6     ecut=    65.00 Ry     beta= 0.70
     Davidson diagonalization with overlap
     ethr =  4.10E-13,  avg # of iterations =  4.0

     total cpu time spent up to now is       31.2 secs

     End of self-consistent calculation

          k = 0.0000 0.0000 0.0000 ( 18643 PWs)   bands (ev):

  -117.7142-117.7142 -79.7068 -79.7068 -61.4401 -61.4401 -61.4394 -61.4394
   -23.8759 -23.8759 -18.5812 -18.5812 -18.5799 -18.5799 -18.5799 -18.5799
   -17.5804 -17.5804 -17.5802 -17.5802 -17.5802 -17.5802 -11.9719 -11.9719
   -10.8426 -10.8426 -10.8339 -10.8339 -10.7170 -10.7170 -10.7170 -10.7170
   -10.7169 -10.7169  -9.0197  -9.0197  -9.0136  -9.0136  -8.9944  -8.9944
    -7.2859  -7.2859  -7.2767  -7.2767  -7.1761  -7.1761  -6.6233  -6.6233
    -6.6231  -6.6231  -6.6027  -6.6027  -2.5563  -2.5563  -2.5499  -2.5499
    -2.5471  -2.5471  -1.4543  -1.4543   0.5304   0.5304

          k = 0.0000-0.5774 0.0000 ( 18732 PWs)   bands (ev):

  -117.7142-117.7142 -79.7068 -79.7068 -61.4401 -61.4401 -61.4394 -61.4394
   -22.4025 -22.4025 -22.4014 -22.4014 -19.5639 -19.5639 -19.5633 -19.5633
   -14.8219 -14.8219 -14.8217 -14.8217 -13.2794 -13.2794 -13.2790 -13.2790
   -11.7055 -11.7055 -11.7055 -11.7055 -10.8458 -10.8458 -10.8331 -10.8331
   -10.2330 -10.2330 -10.1982 -10.1982  -9.3260  -9.3260  -9.3259  -9.3259
    -9.0207  -9.0207  -8.9915  -8.9915  -8.9735  -8.9735  -7.0407  -7.0407
    -7.0075  -7.0075  -6.4439  -6.4439  -2.1325  -2.1325  -1.3865  -1.3865
    -1.3835  -1.3835  -0.3314  -0.3314   0.6590   0.6590

     the Fermi energy is    -5.5489 ev

!    total energy              =    -430.11797285 Ry
     estimated scf accuracy    <          2.0E-11 Ry
     smearing contrib. (-TS)   =      -0.00000000 Ry
     internal energy E=F+TS    =    -430.11797285 Ry

     The total energy is F=E-TS. E is the sum of the following terms:
     one-electron contribution =   -1734.17827443 Ry
     hartree contribution      =     862.66965480 Ry
     xc contribution           =     -89.63518856 Ry
     ewald contribution        =     531.06665633 Ry
     DFT-D3 Dispersion         =      -0.04082098 Ry

     convergence has been achieved in   6 iterations

     Forces acting on atoms (cartesian axes, Ry/au):

     atom    1 type  1   force =    -0.00000000    0.00000305    0.00071410
     atom    2 type  1   force =     0.00000264   -0.00000153    0.00071410
     atom    3 type  1   force =     0.00000000    0.00000000    0.00067026
     atom    4 type  1   force =    -0.00000264   -0.00000153    0.00071410
     atom    5 type  1   force =    -0.00000638    0.00000368    0.00080054
     atom    6 type  1   force =    -0.00000000   -0.00000737    0.00080054
     atom    7 type  1   force =     0.00000638    0.00000368    0.00080054
     atom    8 type  1   force =     0.00000000    0.00000000    0.00063468
     atom    9 type  2   force =     0.00000000   -0.00000000   -0.00584886

     Total force =     0.006206     Total SCF correction =     0.000016


     Computing stress (Cartesian axis) and pressure

          total   stress  (Ry/bohr**3)                   (kbar)     P=        0.11
   0.00002193   0.00000000   0.00000000            3.23        0.00        0.00
   0.00000000   0.00002193   0.00000000            0.00        3.23        0.00
   0.00000000  -0.00000000  -0.00004164            0.00       -0.00       -6.13

     Energy error            =      4.4E-05 Ry
     Gradient error          =      5.8E-03 Ry/Bohr

     number of scf cycles    =   3
     number of bfgs steps    =   2

     energy             old  =    -430.1179293069 Ry
     energy             new  =    -430.1179728497 Ry

     CASE: energy            _new < energy            _old

     new trust radius        =       0.0098524031 bohr
     new conv_thr            =            5.8E-11 Ry


ATOMIC_POSITIONS (angstrom)
C                0.0000000000        0.0000485930        7.4284848811
C               -1.2279581665        2.1269339376        7.4284848811
C                2.4560000900       -0.0000000000        7.4311835439
C                1.2279576005        2.1269339376        7.4284848811
C                1.2279657024        0.7090059079        7.4299517396
C               -0.0000003780        2.8359047210        7.4299517396
C                3.6840341416        0.7090059079        7.4299517396
C                2.4559997120        2.8359442390        7.4265539963
Hg               2.4559997120        2.8359442390       11.0669526212



     Writing config-only to output data dir ./outputs/c_hg.save/ :
     XML data file
     NEW-OLD atomic charge density approx. for the potential

     negative rho (up, down):  1.851E-07 0.000E+00

     total cpu time spent up to now is       32.0 secs

     per-process dynamical memory:    80.3 Mb

     Self-consistent Calculation

     iteration #  1     ecut=    65.00 Ry     beta= 0.70
     Davidson diagonalization with overlap
     ethr =  1.00E-06,  avg # of iterations =  4.0

     Threshold (ethr) on eigenvalues was too large:
     Diagonalizing with lowered threshold

     Davidson diagonalization with overlap
     ethr =  3.05E-09,  avg # of iterations =  3.0

     total cpu time spent up to now is       34.5 secs

     total energy              =    -430.11803627 Ry
     estimated scf accuracy    <       0.00000249 Ry

     iteration #  2     ecut=    65.00 Ry     beta= 0.70
     Davidson diagonalization with overlap
     ethr =  4.80E-09,  avg # of iterations =  2.5

     total cpu time spent up to now is       35.5 secs

     total energy              =    -430.11803659 Ry
     estimated scf accuracy    <       0.00000196 Ry

     iteration #  3     ecut=    65.00 Ry     beta= 0.70
     Davidson diagonalization with overlap
     ethr =  3.77E-09,  avg # of iterations =  2.0

     total cpu time spent up to now is       36.4 secs

     total energy              =    -430.11803723 Ry
     estimated scf accuracy    <       0.00000006 Ry

     iteration #  4     ecut=    65.00 Ry     beta= 0.70
     Davidson diagonalization with overlap
     ethr =  1.15E-10,  avg # of iterations =  3.0

     total cpu time spent up to now is       37.5 secs

     total energy              =    -430.11803724 Ry
     estimated scf accuracy    <       0.00000001 Ry

     iteration #  5     ecut=    65.00 Ry     beta= 0.70
     Davidson diagonalization with overlap
     ethr =  2.74E-11,  avg # of iterations =  2.0

     total cpu time spent up to now is       38.4 secs

     total energy              =    -430.11803725 Ry
     estimated scf accuracy    <          3.9E-10 Ry

     iteration #  6     ecut=    65.00 Ry     beta= 0.70
     Davidson diagonalization with overlap
     ethr =  7.46E-13,  avg # of iterations =  3.5

     total cpu time spent up to now is       39.4 secs

     End of self-consistent calculation

          k = 0.0000 0.0000 0.0000 ( 18643 PWs)   bands (ev):

  -117.7141-117.7141 -79.7067 -79.7067 -61.4400 -61.4400 -61.4393 -61.4393
   -23.8782 -23.8782 -18.5834 -18.5834 -18.5821 -18.5821 -18.5821 -18.5821
   -17.5826 -17.5826 -17.5824 -17.5824 -17.5824 -17.5824 -11.9745 -11.9745
   -10.8425 -10.8425 -10.8338 -10.8338 -10.7193 -10.7193 -10.7193 -10.7193
   -10.7191 -10.7191  -9.0196  -9.0196  -9.0136  -9.0136  -8.9943  -8.9943
    -7.2881  -7.2881  -7.2790  -7.2790  -7.1763  -7.1763  -6.6256  -6.6256
    -6.6254  -6.6254  -6.6043  -6.6043  -2.5587  -2.5587  -2.5523  -2.5523
    -2.5495  -2.5495  -1.4537  -1.4537   0.5258   0.5258

          k = 0.0000-0.5774 0.0000 ( 18732 PWs)   bands (ev):

  -117.7141-117.7141 -79.7067 -79.7067 -61.4400 -61.4400 -61.4393 -61.4393
   -22.4048 -22.4048 -22.4036 -22.4036 -19.5661 -19.5661 -19.5655 -19.5655
   -14.8241 -14.8241 -14.8239 -14.8239 -13.2817 -13.2817 -13.2813 -13.2813
   -11.7078 -11.7078 -11.7077 -11.7077 -10.8460 -10.8460 -10.8330 -10.8330
   -10.2357 -10.2357 -10.2003 -10.2003  -9.3282  -9.3282  -9.3281  -9.3281
    -9.0207  -9.0207  -8.9913  -8.9913  -8.9734  -8.9734  -7.0433  -7.0433
    -7.0097  -7.0097  -6.4430  -6.4430  -2.1324  -2.1324  -1.3887  -1.3887
    -1.3858  -1.3858  -0.3308  -0.3308   0.6591   0.6591

     the Fermi energy is    -5.5488 ev

!    total energy              =    -430.11803725 Ry
     estimated scf accuracy    <          3.0E-11 Ry
     smearing contrib. (-TS)   =      -0.00000000 Ry
     internal energy E=F+TS    =    -430.11803725 Ry

     The total energy is F=E-TS. E is the sum of the following terms:
     one-electron contribution =   -1736.56225487 Ry
     hartree contribution      =     863.85915948 Ry
     xc contribution           =     -89.63522855 Ry
     ewald contribution        =     532.26117455 Ry
     DFT-D3 Dispersion         =      -0.04088785 Ry

     convergence has been achieved in   6 iterations

     Forces acting on atoms (cartesian axes, Ry/au):

     atom    1 type  1   force =    -0.00000000    0.00000219    0.00064597
     atom    2 type  1   force =     0.00000189   -0.00000109    0.00064597
     atom    3 type  1   force =     0.00000000    0.00000000    0.00072323
     atom    4 type  1   force =    -0.00000189   -0.00000109    0.00064597
     atom    5 type  1   force =    -0.00000358    0.00000206    0.00078727
     atom    6 type  1   force =     0.00000000   -0.00000413    0.00078727
     atom    7 type  1   force =     0.00000358    0.00000206    0.00078727
     atom    8 type  1   force =     0.00000000    0.00000000    0.00073268
     atom    9 type  2   force =     0.00000000    0.00000000   -0.00575563

     Total force =     0.006107     Total SCF correction =     0.000021


     Computing stress (Cartesian axis) and pressure

          total   stress  (Ry/bohr**3)                   (kbar)     P=        0.11
   0.00002192   0.00000000   0.00000000            3.22        0.00        0.00
   0.00000000   0.00002192   0.00000000            0.00        3.22        0.00
   0.00000000  -0.00000000  -0.00004157            0.00       -0.00       -6.12

     Energy error            =      6.4E-05 Ry
     Gradient error          =      5.8E-03 Ry/Bohr

     number of scf cycles    =   4
     number of bfgs steps    =   3

     energy             old  =    -430.1179728497 Ry
     energy             new  =    -430.1180372481 Ry

     CASE: energy            _new < energy            _old

     new trust radius        =       0.0147786046 bohr
     new conv_thr            =            5.8E-11 Ry


ATOMIC_POSITIONS (angstrom)
C                0.0000000000        0.0000496822        7.4295025680
C               -1.2279572233        2.1269333931        7.4295025680
C                2.4560000900       -0.0000000000        7.4320879853
C                1.2279566573        2.1269333931        7.4295025680
C                1.2279660676        0.7090056971        7.4309860693
C               -0.0000003780        2.8359051428        7.4309860693
C                3.6840337764        0.7090056971        7.4309860693
C                2.4559997120        2.8359442390        7.4273140061
Hg               2.4559997120        2.8359442390       11.0591321204



     Writing config-only to output data dir ./outputs/c_hg.save/ :
     XML data file
     NEW-OLD atomic charge density approx. for the potential

     negative rho (up, down):  5.641E-07 0.000E+00

     total cpu time spent up to now is       40.2 secs

     per-process dynamical memory:    80.3 Mb

     Self-consistent Calculation

     iteration #  1     ecut=    65.00 Ry     beta= 0.70
     Davidson diagonalization with overlap
     ethr =  1.00E-06,  avg # of iterations =  4.5

     Threshold (ethr) on eigenvalues was too large:
     Diagonalizing with lowered threshold

     Davidson diagonalization with overlap
     ethr =  6.85E-09,  avg # of iterations =  3.0

     total cpu time spent up to now is       42.7 secs

     total energy              =    -430.11812976 Ry
     estimated scf accuracy    <       0.00000557 Ry

     iteration #  2     ecut=    65.00 Ry     beta= 0.70
     Davidson diagonalization with overlap
     ethr =  1.07E-08,  avg # of iterations =  2.5

     total cpu time spent up to now is       43.7 secs

     total energy              =    -430.11813049 Ry
     estimated scf accuracy    <       0.00000437 Ry

     iteration #  3     ecut=    65.00 Ry     beta= 0.70
     Davidson diagonalization with overlap
     ethr =  8.41E-09,  avg # of iterations =  2.0

     total cpu time spent up to now is       44.6 secs

     total energy              =    -430.11813191 Ry
     estimated scf accuracy    <       0.00000014 Ry

     iteration #  4     ecut=    65.00 Ry     beta= 0.70
     Davidson diagonalization with overlap
     ethr =  2.60E-10,  avg # of iterations =  3.0

     total cpu time spent up to now is       45.7 secs

     total energy              =    -430.11813195 Ry
     estimated scf accuracy    <       0.00000003 Ry

     iteration #  5     ecut=    65.00 Ry     beta= 0.70
     Davidson diagonalization with overlap
     ethr =  5.88E-11,  avg # of iterations =  2.0

     total cpu time spent up to now is       46.6 secs

     total energy              =    -430.11813196 Ry
     estimated scf accuracy    <          9.0E-10 Ry

     iteration #  6     ecut=    65.00 Ry     beta= 0.70
     Davidson diagonalization with overlap
     ethr =  1.74E-12,  avg # of iterations =  3.0

     total cpu time spent up to now is       47.7 secs

     total energy              =    -430.11813196 Ry
     estimated scf accuracy    <          7.6E-11 Ry

     iteration #  7     ecut=    65.00 Ry     beta= 0.70
     Davidson diagonalization with overlap
     ethr =  1.46E-13,  avg # of iterations =  4.0

     total cpu time spent up to now is       48.7 secs

     End of self-consistent calculation

          k = 0.0000 0.0000 0.0000 ( 18643 PWs)   bands (ev):

  -117.7138-117.7138 -79.7064 -79.7064 -61.4397 -61.4397 -61.4391 -61.4391
   -23.8815 -23.8815 -18.5868 -18.5868 -18.5855 -18.5855 -18.5854 -18.5854
   -17.5860 -17.5860 -17.5857 -17.5857 -17.5857 -17.5857 -11.9784 -11.9784
   -10.8423 -10.8423 -10.8336 -10.8336 -10.7226 -10.7226 -10.7226 -10.7226
   -10.7224 -10.7224  -9.0194  -9.0194  -9.0135  -9.0135  -8.9942  -8.9942
    -7.2915  -7.2915  -7.2823  -7.2823  -7.1766  -7.1766  -6.6289  -6.6289
    -6.6287  -6.6287  -6.6068  -6.6068  -2.5625  -2.5625  -2.5560  -2.5560
    -2.5530  -2.5530  -1.4527  -1.4527   0.5189   0.5189

          k = 0.0000-0.5774 0.0000 ( 18732 PWs)   bands (ev):

  -117.7138-117.7138 -79.7065 -79.7065 -61.4398 -61.4398 -61.4391 -61.4391
   -22.4081 -22.4081 -22.4069 -22.4069 -19.5695 -19.5695 -19.5688 -19.5688
   -14.8275 -14.8275 -14.8273 -14.8273 -13.2850 -13.2850 -13.2846 -13.2846
   -11.7111 -11.7111 -11.7110 -11.7110 -10.8462 -10.8462 -10.8329 -10.8329
   -10.2398 -10.2398 -10.2036 -10.2036  -9.3315  -9.3315  -9.3314  -9.3314
    -9.0205  -9.0205  -8.9909  -8.9909  -8.9731  -8.9731  -7.0472  -7.0472
    -7.0131  -7.0131  -6.4415  -6.4415  -2.1323  -2.1323  -1.3922  -1.3922
    -1.3892  -1.3892  -0.3297  -0.3297   0.6592   0.6592

     the Fermi energy is    -5.5486 ev

!    total energy              =    -430.11813196 Ry
     estimated scf accuracy    <          3.0E-11 Ry
     smearing contrib. (-TS)   =      -0.00000000 Ry
     internal energy E=F+TS    =    -430.11813196 Ry

     The total energy is F=E-TS. E is the sum of the following terms:
     one-electron contribution =   -1740.13816654 Ry
     hartree contribution      =     865.64333427 Ry
     xc contribution           =     -89.63528681 Ry
     ewald contribution        =     534.05297554 Ry
     DFT-D3 Dispersion         =      -0.04098841 Ry

     convergence has been achieved in   7 iterations

     Forces acting on atoms (cartesian axes, Ry/au):

     atom    1 type  1   force =    -0.00000000    0.00000367    0.00058465
     atom    2 type  1   force =     0.00000318   -0.00000183    0.00058465
     atom    3 type  1   force =     0.00000000    0.00000000    0.00078668
     atom    4 type  1   force =    -0.00000318   -0.00000183    0.00058465
     atom    5 type  1   force =    -0.00000757    0.00000437    0.00075825
     atom    6 type  1   force =    -0.00000000   -0.00000875    0.00075825
     atom    7 type  1   force =     0.00000757    0.00000437    0.00075825
     atom    8 type  1   force =     0.00000000    0.00000000    0.00081469
     atom    9 type  2   force =     0.00000000   -0.00000000   -0.00563008

     Total force =     0.005978     Total SCF correction =     0.000023


     Computing stress (Cartesian axis) and pressure

          total   stress  (Ry/bohr**3)                   (kbar)     P=        0.11
   0.00002189   0.00000000   0.00000000            3.22        0.00        0.00
   0.00000000   0.00002189   0.00000000            0.00        3.22        0.00
   0.00000000   0.00000000  -0.00004147            0.00        0.00       -6.10

     Energy error            =      9.5E-05 Ry
     Gradient error          =      5.6E-03 Ry/Bohr

     number of scf cycles    =   5
     number of bfgs steps    =   4

     energy             old  =    -430.1180372481 Ry
     energy             new  =    -430.1181319579 Ry

     CASE: energy            _new < energy            _old

     new trust radius        =       0.0221679069 bohr
     new conv_thr            =            5.6E-11 Ry


ATOMIC_POSITIONS (angstrom)
C                0.0000000000        0.0000525077        7.4309955270
C               -1.2279547763        2.1269319803        7.4309955270
C                2.4560000900       -0.0000000000        7.4335057931
C                1.2279542103        2.1269319803        7.4309955270
C                1.2279634732        0.7090071950        7.4325269741
C               -0.0000003780        2.8359021470        7.4325269741
C                3.6840363708        0.7090071950        7.4325269741
C                2.4559997120        2.8359442390        7.4285253580
Hg               2.4559997120        2.8359442390       11.0474013692



     Writing config-only to output data dir ./outputs/c_hg.save/ :
     XML data file
     NEW-OLD atomic charge density approx. for the potential

     negative rho (up, down):  1.403E-06 0.000E+00

     total cpu time spent up to now is       49.5 secs

     per-process dynamical memory:    80.3 Mb

     Self-consistent Calculation

     iteration #  1     ecut=    65.00 Ry     beta= 0.70
     Davidson diagonalization with overlap
     ethr =  1.00E-06,  avg # of iterations =  5.0

     Threshold (ethr) on eigenvalues was too large:
     Diagonalizing with lowered threshold

     Davidson diagonalization with overlap
     ethr =  1.51E-08,  avg # of iterations =  3.0

     negative rho (up, down):  4.963E-08 0.000E+00

     total cpu time spent up to now is       52.0 secs

     total energy              =    -430.11826489 Ry
     estimated scf accuracy    <       0.00001249 Ry

     iteration #  2     ecut=    65.00 Ry     beta= 0.70
     Davidson diagonalization with overlap
     ethr =  2.40E-08,  avg # of iterations =  2.5

     total cpu time spent up to now is       53.0 secs

     total energy              =    -430.11826653 Ry
     estimated scf accuracy    <       0.00000973 Ry

     iteration #  3     ecut=    65.00 Ry     beta= 0.70
     Davidson diagonalization with overlap
     ethr =  1.87E-08,  avg # of iterations =  2.0

     total cpu time spent up to now is       53.9 secs

     total energy              =    -430.11826967 Ry
     estimated scf accuracy    <       0.00000030 Ry

     iteration #  4     ecut=    65.00 Ry     beta= 0.70
     Davidson diagonalization with overlap
     ethr =  5.75E-10,  avg # of iterations =  3.0

     total cpu time spent up to now is       55.0 secs

     total energy              =    -430.11826976 Ry
     estimated scf accuracy    <       0.00000008 Ry

     iteration #  5     ecut=    65.00 Ry     beta= 0.70
     Davidson diagonalization with overlap
     ethr =  1.48E-10,  avg # of iterations =  2.0

     total cpu time spent up to now is       56.0 secs

     total energy              =    -430.11826978 Ry
     estimated scf accuracy    <          1.8E-09 Ry

     iteration #  6     ecut=    65.00 Ry     beta= 0.70
     Davidson diagonalization with overlap
     ethr =  3.44E-12,  avg # of iterations =  3.0

     total cpu time spent up to now is       57.0 secs

     total energy              =    -430.11826978 Ry
     estimated scf accuracy    <          1.8E-10 Ry

     iteration #  7     ecut=    65.00 Ry     beta= 0.70
     Davidson diagonalization with overlap
     ethr =  3.49E-13,  avg # of iterations =  3.5

     total cpu time spent up to now is       58.1 secs

     End of self-consistent calculation

          k = 0.0000 0.0000 0.0000 ( 18643 PWs)   bands (ev):

  -117.7134-117.7134 -79.7061 -79.7061 -61.4393 -61.4393 -61.4387 -61.4387
   -23.8865 -23.8865 -18.5919 -18.5919 -18.5905 -18.5905 -18.5905 -18.5905
   -17.5910 -17.5910 -17.5907 -17.5907 -17.5907 -17.5907 -11.9843 -11.9843
   -10.8419 -10.8419 -10.8332 -10.8332 -10.7276 -10.7276 -10.7276 -10.7276
   -10.7275 -10.7275  -9.0190  -9.0190  -9.0134  -9.0134  -8.9940  -8.9940
    -7.2965  -7.2965  -7.2874  -7.2874  -7.1769  -7.1769  -6.6339  -6.6339
    -6.6337  -6.6337  -6.6105  -6.6105  -2.5682  -2.5682  -2.5614  -2.5614
    -2.5583  -2.5583  -1.4510  -1.4510   0.5086   0.5086

          k = 0.0000-0.5774 0.0000 ( 18732 PWs)   bands (ev):

  -117.7134-117.7134 -79.7061 -79.7061 -61.4394 -61.4394 -61.4387 -61.4387
   -22.4132 -22.4132 -22.4119 -22.4119 -19.5745 -19.5745 -19.5738 -19.5738
   -14.8325 -14.8325 -14.8323 -14.8323 -13.2900 -13.2900 -13.2896 -13.2896
   -11.7162 -11.7162 -11.7161 -11.7161 -10.8466 -10.8466 -10.8326 -10.8326
   -10.2460 -10.2460 -10.2085 -10.2085  -9.3366  -9.3366  -9.3365  -9.3365
    -9.0203  -9.0203  -8.9904  -8.9904  -8.9726  -8.9726  -7.0532  -7.0532
    -7.0181  -7.0181  -6.4393  -6.4393  -2.1319  -2.1319  -1.3974  -1.3974
    -1.3943  -1.3943  -0.3280  -0.3280   0.6595   0.6595

     the Fermi energy is    -5.5483 ev

!    total energy              =    -430.11826978 Ry
     estimated scf accuracy    <          4.6E-11 Ry
     smearing contrib. (-TS)   =      -0.00000000 Ry
     internal energy E=F+TS    =    -430.11826978 Ry

     The total energy is F=E-TS. E is the sum of the following terms:
     one-electron contribution =   -1745.50212261 Ry
     hartree contribution      =     868.31968816 Ry
     xc contribution           =     -89.63539081 Ry
     ewald contribution        =     536.74069529 Ry
     DFT-D3 Dispersion         =      -0.04113980 Ry

     convergence has been achieved in   7 iterations

     Forces acting on atoms (cartesian axes, Ry/au):

     atom    1 type  1   force =    -0.00000000    0.00000315    0.00051904
     atom    2 type  1   force =     0.00000272   -0.00000157    0.00051904
     atom    3 type  1   force =     0.00000000    0.00000000    0.00084785
     atom    4 type  1   force =    -0.00000272   -0.00000157    0.00051904
     atom    5 type  1   force =    -0.00000322    0.00000186    0.00071430
     atom    6 type  1   force =     0.00000000   -0.00000372    0.00071430
     atom    7 type  1   force =     0.00000322    0.00000186    0.00071430
     atom    8 type  1   force =     0.00000000    0.00000000    0.00087756
     atom    9 type  2   force =     0.00000000   -0.00000000   -0.00542546

     Total force =     0.005767     Total SCF correction =     0.000026


     Computing stress (Cartesian axis) and pressure

          total   stress  (Ry/bohr**3)                   (kbar)     P=        0.12
   0.00002187   0.00000000   0.00000000            3.22        0.00        0.00
   0.00000000   0.00002187  -0.00000000            0.00        3.22       -0.00
   0.00000000   0.00000000  -0.00004127            0.00        0.00       -6.07

     Energy error            =      1.4E-04 Ry
     Gradient error          =      5.4E-03 Ry/Bohr

     number of scf cycles    =   6
     number of bfgs steps    =   5

     energy             old  =    -430.1181319579 Ry
     energy             new  =    -430.1182697761 Ry

     CASE: energy            _new < energy            _old

     new trust radius        =       0.0332518604 bohr
     new conv_thr            =            5.4E-11 Ry


ATOMIC_POSITIONS (angstrom)
C                0.0000000000        0.0000563792        7.4332031460
C               -1.2279514235        2.1269300445        7.4332031460
C                2.4560000900       -0.0000000000        7.4357031006
C                1.2279508575        2.1269300445        7.4332031460
C                1.2279630839        0.7090074197        7.4348239538
C               -0.0000003780        2.8359016975        7.4348239538
C                3.6840367601        0.7090074197        7.4348239538
C                2.4559997120        2.8359442390        7.4304103811
Hg               2.4559997120        2.8359442390       11.0298052425



     Writing config-only to output data dir ./outputs/c_hg.save/ :
     XML data file
     NEW-OLD atomic charge density approx. for the potential

     negative rho (up, down):  3.118E-06 0.000E+00

     total cpu time spent up to now is       58.8 secs

     per-process dynamical memory:    80.3 Mb

     Self-consistent Calculation

     iteration #  1     ecut=    65.00 Ry     beta= 0.70
     Davidson diagonalization with overlap
     ethr =  1.00E-06,  avg # of iterations =  5.0

     Threshold (ethr) on eigenvalues was too large:
     Diagonalizing with lowered threshold

     Davidson diagonalization with overlap
     ethr =  4.73E-08,  avg # of iterations =  2.0

     negative rho (up, down):  2.136E-07 0.000E+00

     total cpu time spent up to now is       61.4 secs

     total energy              =    -430.11845659 Ry
     estimated scf accuracy    <       0.00002729 Ry

     iteration #  2     ecut=    65.00 Ry     beta= 0.70
     Davidson diagonalization with overlap
     ethr =  5.25E-08,  avg # of iterations =  2.5

     negative rho (up, down):  3.703E-08 0.000E+00

     total cpu time spent up to now is       62.4 secs

     total energy              =    -430.11845983 Ry
     estimated scf accuracy    <       0.00001973 Ry

     iteration #  3     ecut=    65.00 Ry     beta= 0.70
     Davidson diagonalization with overlap
     ethr =  3.79E-08,  avg # of iterations =  2.0

     total cpu time spent up to now is       63.4 secs

     total energy              =    -430.11846649 Ry
     estimated scf accuracy    <       0.00000080 Ry

     iteration #  4     ecut=    65.00 Ry     beta= 0.70
     Davidson diagonalization with overlap
     ethr =  1.54E-09,  avg # of iterations =  2.5

     total cpu time spent up to now is       64.4 secs

     total energy              =    -430.11846671 Ry
     estimated scf accuracy    <       0.00000019 Ry

     iteration #  5     ecut=    65.00 Ry     beta= 0.70
     Davidson diagonalization with overlap
     ethr =  3.66E-10,  avg # of iterations =  2.0

     total cpu time spent up to now is       65.3 secs

     total energy              =    -430.11846675 Ry
     estimated scf accuracy    <          3.8E-09 Ry

     iteration #  6     ecut=    65.00 Ry     beta= 0.70
     Davidson diagonalization with overlap
     ethr =  7.27E-12,  avg # of iterations =  3.5

     total cpu time spent up to now is       66.4 secs

     total energy              =    -430.11846675 Ry
     estimated scf accuracy    <          3.0E-10 Ry

     iteration #  7     ecut=    65.00 Ry     beta= 0.70
     Davidson diagonalization with overlap
     ethr =  5.77E-13,  avg # of iterations =  3.0

     total cpu time spent up to now is       67.5 secs

     total energy              =    -430.11846675 Ry
     estimated scf accuracy    <          6.6E-11 Ry

     iteration #  8     ecut=    65.00 Ry     beta= 0.70
     Davidson diagonalization with overlap
     ethr =  1.26E-13,  avg # of iterations =  2.5

     total cpu time spent up to now is       68.5 secs

     End of self-consistent calculation

          k = 0.0000 0.0000 0.0000 ( 18643 PWs)   bands (ev):

  -117.7127-117.7127 -79.7054 -79.7054 -61.4387 -61.4387 -61.4380 -61.4380
   -23.8942 -23.8942 -18.5996 -18.5996 -18.5981 -18.5981 -18.5981 -18.5981
   -17.5987 -17.5987 -17.5984 -17.5984 -17.5984 -17.5984 -11.9934 -11.9934
   -10.8413 -10.8413 -10.8326 -10.8326 -10.7353 -10.7353 -10.7353 -10.7353
   -10.7351 -10.7351  -9.0184  -9.0184  -9.0130  -9.0130  -8.9935  -8.9935
    -7.3042  -7.3042  -7.2950  -7.2950  -7.1775  -7.1775  -6.6415  -6.6415
    -6.6413  -6.6413  -6.6160  -6.6160  -2.5768  -2.5768  -2.5697  -2.5697
    -2.5665  -2.5665  -1.4482  -1.4482   0.4930   0.4930

          k = 0.0000-0.5774 0.0000 ( 18732 PWs)   bands (ev):

  -117.7127-117.7127 -79.7054 -79.7054 -61.4387 -61.4387 -61.4380 -61.4380
   -22.4209 -22.4209 -22.4195 -22.4195 -19.5822 -19.5822 -19.5815 -19.5815
   -14.8402 -14.8402 -14.8400 -14.8400 -13.2977 -13.2977 -13.2972 -13.2972
   -11.7238 -11.7238 -11.7237 -11.7237 -10.8471 -10.8471 -10.8321 -10.8321
   -10.2554 -10.2554 -10.2159 -10.2159  -9.3442  -9.3442  -9.3441  -9.3441
    -9.0199  -9.0199  -8.9894  -8.9894  -8.9718  -8.9718  -7.0622  -7.0622
    -7.0257  -7.0257  -6.4356  -6.4356  -2.1313  -2.1313  -1.4053  -1.4053
    -1.4021  -1.4021  -0.3250  -0.3250   0.6602   0.6602

     the Fermi energy is    -5.5476 ev

!    total energy              =    -430.11846675 Ry
     estimated scf accuracy    <          4.7E-12 Ry
     smearing contrib. (-TS)   =      -0.00000000 Ry
     internal energy E=F+TS    =    -430.11846675 Ry

     The total energy is F=E-TS. E is the sum of the following terms:
     one-electron contribution =   -1753.54811921 Ry
     hartree contribution      =     872.33430464 Ry
     xc contribution           =     -89.63557077 Ry
     ewald contribution        =     540.77228658 Ry
     DFT-D3 Dispersion         =      -0.04136798 Ry

     convergence has been achieved in   8 iterations

     Forces acting on atoms (cartesian axes, Ry/au):

     atom    1 type  1   force =    -0.00000000    0.00000527    0.00044335
     atom    2 type  1   force =     0.00000456   -0.00000263    0.00044335
     atom    3 type  1   force =     0.00000000    0.00000000    0.00090055
     atom    4 type  1   force =    -0.00000456   -0.00000263    0.00044335
     atom    5 type  1   force =    -0.00000804    0.00000464    0.00065520
     atom    6 type  1   force =    -0.00000000   -0.00000929    0.00065520
     atom    7 type  1   force =     0.00000804    0.00000464    0.00065520
     atom    8 type  1   force =     0.00000000    0.00000000    0.00091260
     atom    9 type  2   force =     0.00000000    0.00000000   -0.00510878

     Total force =     0.005443     Total SCF correction =     0.000019


     Computing stress (Cartesian axis) and pressure

          total   stress  (Ry/bohr**3)                   (kbar)     P=        0.13
   0.00002183   0.00000000   0.00000000            3.21        0.00        0.00
   0.00000000   0.00002183  -0.00000000            0.00        3.21       -0.00
   0.00000000  -0.00000000  -0.00004091            0.00       -0.00       -6.02

     Energy error            =      2.0E-04 Ry
     Gradient error          =      5.1E-03 Ry/Bohr

     number of scf cycles    =   7
     number of bfgs steps    =   6

     energy             old  =    -430.1182697761 Ry
     energy             new  =    -430.1184667505 Ry

     CASE: energy            _new < energy            _old

     new trust radius        =       0.0498777906 bohr
     new conv_thr            =            5.1E-11 Ry


ATOMIC_POSITIONS (angstrom)
C                0.0000000000        0.0000640806        7.4364811958
C               -1.2279447539        2.1269261938        7.4364811958
C                2.4560000900       -0.0000000000        7.4390816212
C                1.2279441879        2.1269261938        7.4364811958
C                1.2279584340        0.7090101044        7.4382538791
C               -0.0000003780        2.8358963282        7.4382538791
C                3.6840414100        0.7090101044        7.4382538791
C                2.4559997120        2.8359442390        7.4333021252
Hg               2.4559997120        2.8359442390       11.0034110524



     Writing config-only to output data dir ./outputs/c_hg.save/ :
     XML data file
     NEW-OLD atomic charge density approx. for the potential

     negative rho (up, down):  6.358E-06 0.000E+00

     total cpu time spent up to now is       69.2 secs

     per-process dynamical memory:    80.3 Mb

     Self-consistent Calculation

     iteration #  1     ecut=    65.00 Ry     beta= 0.70
     Davidson diagonalization with overlap
     ethr =  1.00E-06,  avg # of iterations =  6.0

     negative rho (up, down):  6.260E-07 0.000E+00

     total cpu time spent up to now is       71.0 secs

     total energy              =    -430.11872004 Ry
     estimated scf accuracy    <       0.00005616 Ry

     iteration #  2     ecut=    65.00 Ry     beta= 0.70
     Davidson diagonalization with overlap
     ethr =  1.08E-07,  avg # of iterations =  2.5

     negative rho (up, down):  1.398E-07 0.000E+00

     total cpu time spent up to now is       72.0 secs

     total energy              =    -430.11872741 Ry
     estimated scf accuracy    <       0.00002970 Ry

     iteration #  3     ecut=    65.00 Ry     beta= 0.70
     Davidson diagonalization with overlap
     ethr =  5.71E-08,  avg # of iterations =  2.0

     total cpu time spent up to now is       72.9 secs

     total energy              =    -430.11873820 Ry
     estimated scf accuracy    <       0.00000236 Ry

     iteration #  4     ecut=    65.00 Ry     beta= 0.70
     Davidson diagonalization with overlap
     ethr =  4.55E-09,  avg # of iterations =  2.0

     total cpu time spent up to now is       73.9 secs

     total energy              =    -430.11873887 Ry
     estimated scf accuracy    <       0.00000033 Ry

     iteration #  5     ecut=    65.00 Ry     beta= 0.70
     Davidson diagonalization with overlap
     ethr =  6.37E-10,  avg # of iterations =  2.0

     total cpu time spent up to now is       74.8 secs

     total energy              =    -430.11873894 Ry
     estimated scf accuracy    <          5.1E-09 Ry

     iteration #  6     ecut=    65.00 Ry     beta= 0.70
     Davidson diagonalization with overlap
     ethr =  9.86E-12,  avg # of iterations =  3.0

     total cpu time spent up to now is       75.9 secs

     total energy              =    -430.11873894 Ry
     estimated scf accuracy    <          6.4E-10 Ry

     iteration #  7     ecut=    65.00 Ry     beta= 0.70
     Davidson diagonalization with overlap
     ethr =  1.24E-12,  avg # of iterations =  2.5

     total cpu time spent up to now is       76.9 secs

     total energy              =    -430.11873894 Ry
     estimated scf accuracy    <          1.1E-10 Ry

     iteration #  8     ecut=    65.00 Ry     beta= 0.70
     Davidson diagonalization with overlap
     ethr =  2.19E-13,  avg # of iterations =  2.5

     total cpu time spent up to now is       77.9 secs

     End of self-consistent calculation

          k = 0.0000 0.0000 0.0000 ( 18643 PWs)   bands (ev):

  -117.7114-117.7114 -79.7040 -79.7040 -61.4373 -61.4373 -61.4366 -61.4366
   -23.9059 -23.9059 -18.6114 -18.6114 -18.6097 -18.6097 -18.6097 -18.6097
   -17.6103 -17.6103 -17.6100 -17.6100 -17.6100 -17.6100 -12.0072 -12.0072
   -10.8401 -10.8401 -10.8315 -10.8315 -10.7470 -10.7470 -10.7469 -10.7469
   -10.7466 -10.7466  -9.0172  -9.0172  -9.0123  -9.0123  -8.9926  -8.9926
    -7.3159  -7.3159  -7.3067  -7.3067  -7.1782  -7.1782  -6.6532  -6.6532
    -6.6529  -6.6529  -6.6240  -6.6240  -2.5900  -2.5900  -2.5824  -2.5824
    -2.5789  -2.5789  -1.4432  -1.4432   0.4695   0.4695

          k = 0.0000-0.5774 0.0000 ( 18732 PWs)   bands (ev):

  -117.7114-117.7114 -79.7040 -79.7040 -61.4373 -61.4373 -61.4366 -61.4366
   -22.4327 -22.4327 -22.4311 -22.4311 -19.5939 -19.5939 -19.5931 -19.5931
   -14.8519 -14.8519 -14.8516 -14.8516 -13.3094 -13.3094 -13.3089 -13.3089
   -11.7355 -11.7355 -11.7354 -11.7354 -10.8477 -10.8477 -10.8311 -10.8311
   -10.2698 -10.2698 -10.2271 -10.2271  -9.3559  -9.3559  -9.3558  -9.3558
    -9.0189  -9.0189  -8.9877  -8.9877  -8.9702  -8.9702  -7.0761  -7.0761
    -7.0374  -7.0374  -6.4296  -6.4296  -2.1300  -2.1300  -1.4174  -1.4174
    -1.4140  -1.4140  -0.3197  -0.3197   0.6616   0.6616

     the Fermi energy is    -5.5463 ev

!    total energy              =    -430.11873894 Ry
     estimated scf accuracy    <          5.1E-12 Ry
     smearing contrib. (-TS)   =      -0.00000000 Ry
     internal energy E=F+TS    =    -430.11873894 Ry

     The total energy is F=E-TS. E is the sum of the following terms:
     one-electron contribution =   -1765.61692425 Ry
     hartree contribution      =     878.35612489 Ry
     xc contribution           =     -89.63588703 Ry
     ewald contribution        =     546.81965957 Ry
     DFT-D3 Dispersion         =      -0.04171214 Ry

     convergence has been achieved in   8 iterations

     Forces acting on atoms (cartesian axes, Ry/au):

     atom    1 type  1   force =     0.00000000    0.00000465    0.00034781
     atom    2 type  1   force =     0.00000403   -0.00000232    0.00034781
     atom    3 type  1   force =     0.00000000    0.00000000    0.00093293
     atom    4 type  1   force =    -0.00000403   -0.00000232    0.00034781
     atom    5 type  1   force =    -0.00000339    0.00000196    0.00057482
     atom    6 type  1   force =     0.00000000   -0.00000392    0.00057482
     atom    7 type  1   force =     0.00000339    0.00000196    0.00057482
     atom    8 type  1   force =     0.00000000    0.00000000    0.00089495
     atom    9 type  2   force =     0.00000000   -0.00000000   -0.00459578

     Total force =     0.004914     Total SCF correction =     0.000011


     Computing stress (Cartesian axis) and pressure

          total   stress  (Ry/bohr**3)                   (kbar)     P=        0.16
   0.00002177   0.00000000   0.00000000            3.20        0.00        0.00
   0.00000000   0.00002177  -0.00000000            0.00        3.20       -0.00
   0.00000000   0.00000000  -0.00004021            0.00        0.00       -5.92

     Energy error            =      2.7E-04 Ry
     Gradient error          =      4.6E-03 Ry/Bohr

     number of scf cycles    =   8
     number of bfgs steps    =   7

     energy             old  =    -430.1184667505 Ry
     energy             new  =    -430.1187389424 Ry

     CASE: energy            _new < energy            _old

     new trust radius        =       0.0748166859 bohr
     new conv_thr            =            4.6E-11 Ry


ATOMIC_POSITIONS (angstrom)
C                0.0000000000        0.0000755008        7.4413585548
C               -1.2279348637        2.1269204837        7.4413585548
C                2.4560000900       -0.0000000000        7.4442538095
C                1.2279342977        2.1269204837        7.4413585548
C                1.2279550101        0.7090120811        7.4433849906
C               -0.0000003780        2.8358923746        7.4433849906
C                3.6840448339        0.7090120811        7.4433849906
C                2.4559997120        2.8359442390        7.4376958105
Hg               2.4559997120        2.8359442390       10.9638197673



     Writing config-only to output data dir ./outputs/c_hg.save/ :
     XML data file
     NEW-OLD atomic charge density approx. for the potential

     negative rho (up, down):  1.200E-05 0.000E+00

     total cpu time spent up to now is       78.6 secs

     per-process dynamical memory:    80.3 Mb

     Self-consistent Calculation

     iteration #  1     ecut=    65.00 Ry     beta= 0.70
     Davidson diagonalization with overlap
     ethr =  1.00E-06,  avg # of iterations =  6.0

     negative rho (up, down):  1.422E-06 0.000E+00

     total cpu time spent up to now is       80.6 secs

     total energy              =    -430.11903734 Ry
     estimated scf accuracy    <       0.00013800 Ry

     iteration #  2     ecut=    65.00 Ry     beta= 0.70
     Davidson diagonalization with overlap
     ethr =  2.65E-07,  avg # of iterations =  3.0

     negative rho (up, down):  4.880E-07 0.000E+00

     total cpu time spent up to now is       81.6 secs

     total energy              =    -430.11905409 Ry
     estimated scf accuracy    <       0.00010564 Ry

     iteration #  3     ecut=    65.00 Ry     beta= 0.70
     Davidson diagonalization with overlap
     ethr =  2.03E-07,  avg # of iterations =  2.0

     total cpu time spent up to now is       82.5 secs

     total energy              =    -430.11908906 Ry
     estimated scf accuracy    <       0.00000409 Ry

     iteration #  4     ecut=    65.00 Ry     beta= 0.70
     Davidson diagonalization with overlap
     ethr =  7.86E-09,  avg # of iterations =  2.5

     total cpu time spent up to now is       83.6 secs

     total energy              =    -430.11909026 Ry
     estimated scf accuracy    <       0.00000109 Ry

     iteration #  5     ecut=    65.00 Ry     beta= 0.70
     Davidson diagonalization with overlap
     ethr =  2.09E-09,  avg # of iterations =  2.0

     total cpu time spent up to now is       84.5 secs

     total energy              =    -430.11909048 Ry
     estimated scf accuracy    <       0.00000002 Ry

     iteration #  6     ecut=    65.00 Ry     beta= 0.70
     Davidson diagonalization with overlap
     ethr =  3.21E-11,  avg # of iterations =  3.5

     total cpu time spent up to now is       85.5 secs

     total energy              =    -430.11909049 Ry
     estimated scf accuracy    <          1.5E-09 Ry

     iteration #  7     ecut=    65.00 Ry     beta= 0.70
     Davidson diagonalization with overlap
     ethr =  2.98E-12,  avg # of iterations =  3.0

     total cpu time spent up to now is       86.6 secs

     total energy              =    -430.11909049 Ry
     estimated scf accuracy    <          3.7E-10 Ry

     iteration #  8     ecut=    65.00 Ry     beta= 0.70
     Davidson diagonalization with overlap
     ethr =  7.08E-13,  avg # of iterations =  2.0

     total cpu time spent up to now is       87.5 secs

     End of self-consistent calculation

          k = 0.0000 0.0000 0.0000 ( 18643 PWs)   bands (ev):

  -117.7087-117.7087 -79.7013 -79.7013 -61.4346 -61.4346 -61.4338 -61.4338
   -23.9239 -23.9239 -18.6296 -18.6296 -18.6277 -18.6277 -18.6277 -18.6277
   -17.6284 -17.6284 -17.6280 -17.6280 -17.6280 -17.6280 -12.0287 -12.0287
   -10.8377 -10.8377 -10.8293 -10.8293 -10.7650 -10.7650 -10.7648 -10.7648
   -10.7644 -10.7644  -9.0148  -9.0148  -9.0107  -9.0107  -8.9906  -8.9906
    -7.3340  -7.3340  -7.3248  -7.3248  -7.1793  -7.1793  -6.6711  -6.6711
    -6.6708  -6.6708  -6.6356  -6.6356  -2.6104  -2.6104  -2.6019  -2.6019
    -2.5982  -2.5982  -1.4342  -1.4342   0.4342   0.4342

          k = 0.0000-0.5774 0.0000 ( 18732 PWs)   bands (ev):

  -117.7087-117.7087 -79.7013 -79.7013 -61.4347 -61.4347 -61.4339 -61.4339
   -22.4509 -22.4509 -22.4490 -22.4490 -19.6120 -19.6120 -19.6111 -19.6111
   -14.8699 -14.8699 -14.8696 -14.8696 -13.3274 -13.3274 -13.3268 -13.3268
   -11.7536 -11.7536 -11.7534 -11.7534 -10.8486 -10.8486 -10.8289 -10.8289
   -10.2922 -10.2922 -10.2442 -10.2442  -9.3739  -9.3739  -9.3738  -9.3738
    -9.0170  -9.0170  -8.9844  -8.9844  -8.9671  -8.9671  -7.0975  -7.0975
    -7.0552  -7.0552  -6.4192  -6.4192  -2.1272  -2.1272  -1.4361  -1.4361
    -1.4324  -1.4324  -0.3100  -0.3100   0.6645   0.6645

     the Fermi energy is    -5.5433 ev

!    total energy              =    -430.11909049 Ry
     estimated scf accuracy    <          2.6E-11 Ry
     smearing contrib. (-TS)   =      -0.00000000 Ry
     internal energy E=F+TS    =    -430.11909049 Ry

     The total energy is F=E-TS. E is the sum of the following terms:
     one-electron contribution =   -1783.71951264 Ry
     hartree contribution      =     887.38848176 Ry
     xc contribution           =     -89.63647629 Ry
     ewald contribution        =     555.89064763 Ry
     DFT-D3 Dispersion         =      -0.04223095 Ry

     convergence has been achieved in   8 iterations

     Forces acting on atoms (cartesian axes, Ry/au):

     atom    1 type  1   force =     0.00000000    0.00001083    0.00021608
     atom    2 type  1   force =     0.00000938   -0.00000542    0.00021608
     atom    3 type  1   force =     0.00000000    0.00000000    0.00092770
     atom    4 type  1   force =    -0.00000938   -0.00000542    0.00021608
     atom    5 type  1   force =    -0.00000927    0.00000535    0.00046478
     atom    6 type  1   force =     0.00000000   -0.00001070    0.00046478
     atom    7 type  1   force =     0.00000927    0.00000535    0.00046478
     atom    8 type  1   force =     0.00000000    0.00000000    0.00077160
     atom    9 type  2   force =     0.00000000   -0.00000000   -0.00374186

     Total force =     0.004031     Total SCF correction =     0.000048


     Computing stress (Cartesian axis) and pressure

          total   stress  (Ry/bohr**3)                   (kbar)     P=        0.22
   0.00002169   0.00000000   0.00000000            3.19        0.00        0.00
   0.00000000   0.00002169   0.00000000            0.00        3.19        0.00
   0.00000000   0.00000000  -0.00003881            0.00        0.00       -5.71

     Energy error            =      3.5E-04 Ry
     Gradient error          =      3.7E-03 Ry/Bohr

     number of scf cycles    =   9
     number of bfgs steps    =   8

     energy             old  =    -430.1187389424 Ry
     energy             new  =    -430.1190904919 Ry

     CASE: energy            _new < energy            _old

     new trust radius        =       0.1122250288 bohr
     new conv_thr            =            3.7E-11 Ry


ATOMIC_POSITIONS (angstrom)
C                0.0000000000        0.0000994316        7.4486156530
C               -1.2279141390        2.1269085183        7.4486156530
C                2.4560000900       -0.0000000000        7.4521710370
C                1.2279135730        2.1269085183        7.4486156530
C                1.2279437346        0.7090185910        7.4510774114
C               -0.0000003780        2.8358793548        7.4510774114
C                3.6840561094        0.7090185911        7.4510774114
C                2.4559997120        2.8359442390        7.4443169540
Hg               2.4559997120        2.8359442390       10.9044328395



     Writing config-only to output data dir ./outputs/c_hg.save/ :
     XML data file
     NEW-OLD atomic charge density approx. for the potential

     negative rho (up, down):  2.072E-05 0.000E+00

     total cpu time spent up to now is       88.3 secs

     per-process dynamical memory:    80.3 Mb

     Self-consistent Calculation

     iteration #  1     ecut=    65.00 Ry     beta= 0.70
     Davidson diagonalization with overlap
     ethr =  1.00E-06,  avg # of iterations =  7.0

     negative rho (up, down):  2.786E-06 0.000E+00

     total cpu time spent up to now is       90.4 secs

     total energy              =    -430.11936184 Ry
     estimated scf accuracy    <       0.00030120 Ry

     iteration #  2     ecut=    65.00 Ry     beta= 0.70
     Davidson diagonalization with overlap
     ethr =  5.79E-07,  avg # of iterations =  4.5

     negative rho (up, down):  1.077E-06 0.000E+00

     total cpu time spent up to now is       91.4 secs

     total energy              =    -430.11939483 Ry
     estimated scf accuracy    <       0.00021001 Ry

     iteration #  3     ecut=    65.00 Ry     beta= 0.70
     Davidson diagonalization with overlap
     ethr =  4.04E-07,  avg # of iterations =  2.5

     total cpu time spent up to now is       92.4 secs

     total energy              =    -430.11946705 Ry
     estimated scf accuracy    <       0.00001146 Ry

     iteration #  4     ecut=    65.00 Ry     beta= 0.70
     Davidson diagonalization with overlap
     ethr =  2.20E-08,  avg # of iterations =  2.5

     total cpu time spent up to now is       93.5 secs

     total energy              =    -430.11947045 Ry
     estimated scf accuracy    <       0.00000309 Ry

     iteration #  5     ecut=    65.00 Ry     beta= 0.70
     Davidson diagonalization with overlap
     ethr =  5.95E-09,  avg # of iterations =  2.0

     total cpu time spent up to now is       94.4 secs

     total energy              =    -430.11947106 Ry
     estimated scf accuracy    <       0.00000002 Ry

     iteration #  6     ecut=    65.00 Ry     beta= 0.70
     Davidson diagonalization with overlap
     ethr =  4.55E-11,  avg # of iterations =  3.5

     total cpu time spent up to now is       95.5 secs

     total energy              =    -430.11947108 Ry
     estimated scf accuracy    <          3.5E-09 Ry

     iteration #  7     ecut=    65.00 Ry     beta= 0.70
     Davidson diagonalization with overlap
     ethr =  6.80E-12,  avg # of iterations =  2.5

     total cpu time spent up to now is       96.5 secs

     total energy              =    -430.11947108 Ry
     estimated scf accuracy    <          9.1E-10 Ry

     iteration #  8     ecut=    65.00 Ry     beta= 0.70
     Davidson diagonalization with overlap
     ethr =  1.74E-12,  avg # of iterations =  2.0

     total cpu time spent up to now is       97.5 secs

     End of self-consistent calculation

          k = 0.0000 0.0000 0.0000 ( 18643 PWs)   bands (ev):

  -117.7032-117.7032 -79.6959 -79.6959 -61.4293 -61.4293 -61.4284 -61.4284
   -23.9524 -23.9524 -18.6584 -18.6584 -18.6560 -18.6560 -18.6560 -18.6560
   -17.6568 -17.6568 -17.6564 -17.6564 -17.6564 -17.6564 -12.0631 -12.0631
   -10.8330 -10.8330 -10.8256 -10.8256 -10.7933 -10.7933 -10.7929 -10.7929
   -10.7915 -10.7915  -9.0100  -9.0100  -9.0072  -9.0072  -8.9867  -8.9867
    -7.3625  -7.3625  -7.3533  -7.3533  -7.1813  -7.1813  -6.6992  -6.6992
    -6.6988  -6.6988  -6.6514  -6.6514  -2.6426  -2.6426  -2.6327  -2.6327
    -2.6285  -2.6285  -1.4173  -1.4173   0.3814   0.3814

          k = 0.0000-0.5774 0.0000 ( 18732 PWs)   bands (ev):

  -117.7032-117.7032 -79.6959 -79.6959 -61.4293 -61.4293 -61.4284 -61.4284
   -22.4796 -22.4796 -22.4772 -22.4772 -19.6406 -19.6406 -19.6394 -19.6394
   -14.8984 -14.8984 -14.8980 -14.8980 -13.3558 -13.3558 -13.3552 -13.3552
   -11.7820 -11.7820 -11.7818 -11.7818 -10.8502 -10.8502 -10.8244 -10.8244
   -10.3277 -10.3277 -10.2705 -10.2705  -9.4024  -9.4024  -9.4022  -9.4022
    -9.0131  -9.0131  -8.9783  -8.9783  -8.9611  -8.9611  -7.1312  -7.1312
    -7.0832  -7.0832  -6.4006  -6.4006  -2.1212  -2.1212  -1.4656  -1.4656
    -1.4614  -1.4614  -0.2915  -0.2915   0.6708   0.6708

     the Fermi energy is    -5.5371 ev

!    total energy              =    -430.11947108 Ry
     estimated scf accuracy    <          3.2E-11 Ry
     smearing contrib. (-TS)   =      -0.00000000 Ry
     internal energy E=F+TS    =    -430.11947108 Ry

     The total energy is F=E-TS. E is the sum of the following terms:
     one-electron contribution =   -1810.87110918 Ry
     hartree contribution      =     900.93540819 Ry
     xc contribution           =     -89.63763229 Ry
     ewald contribution        =     569.49686982 Ry
     DFT-D3 Dispersion         =      -0.04300763 Ry

     convergence has been achieved in   8 iterations

     Forces acting on atoms (cartesian axes, Ry/au):

     atom    1 type  1   force =    -0.00000000    0.00001754    0.00001104
     atom    2 type  1   force =     0.00001519   -0.00000877    0.00001104
     atom    3 type  1   force =     0.00000000    0.00000000    0.00084909
     atom    4 type  1   force =    -0.00001519   -0.00000877    0.00001104
     atom    5 type  1   force =    -0.00000218    0.00000126    0.00030575
     atom    6 type  1   force =     0.00000000   -0.00000252    0.00030575
     atom    7 type  1   force =     0.00000218    0.00000126    0.00030575
     atom    8 type  1   force =     0.00000000   -0.00000000    0.00041947
     atom    9 type  2   force =     0.00000000    0.00000000   -0.00221894

     Total force =     0.002470     Total SCF correction =     0.000027


     Computing stress (Cartesian axis) and pressure

          total   stress  (Ry/bohr**3)                   (kbar)     P=        0.36
   0.00002159   0.00000000   0.00000000            3.18        0.00        0.00
   0.00000000   0.00002159  -0.00000000            0.00        3.18       -0.00
   0.00000000   0.00000000  -0.00003581            0.00        0.00       -5.27

     Energy error            =      3.8E-04 Ry
     Gradient error          =      2.2E-03 Ry/Bohr

     number of scf cycles    =  10
     number of bfgs steps    =   9

     energy             old  =    -430.1190904919 Ry
     energy             new  =    -430.1194710771 Ry

     CASE: energy            _new < energy            _old

     new trust radius        =       0.1642968442 bohr
     new conv_thr            =            2.2E-11 Ry


ATOMIC_POSITIONS (angstrom)
C                0.0000000000        0.0001488268        7.4590988531
C               -1.2278713615        2.1268838207        7.4590988531
C                2.4560000900       -0.0000000000        7.4641424983
C                1.2278707955        2.1268838207        7.4590988531
C                1.2279319061        0.7090254202        7.4623764983
C               -0.0000003780        2.8358656964        7.4623764983
C                3.6840679379        0.7090254202        7.4623764983
C                2.4559997120        2.8359442390        7.4539407773
Hg               2.4559997120        2.8359442390       10.8174906938



     Writing config-only to output data dir ./outputs/c_hg.save/ :
     XML data file
     NEW-OLD atomic charge density approx. for the potential

     negative rho (up, down):  3.386E-05 0.000E+00

     total cpu time spent up to now is       98.2 secs

     per-process dynamical memory:    80.3 Mb

     Self-consistent Calculation

     iteration #  1     ecut=    65.00 Ry     beta= 0.70
     Davidson diagonalization with overlap
     ethr =  1.00E-06,  avg # of iterations =  7.0

     negative rho (up, down):  4.637E-06 0.000E+00

     total cpu time spent up to now is      100.4 secs

     total energy              =    -430.11933548 Ry
     estimated scf accuracy    <       0.00071012 Ry

     iteration #  2     ecut=    65.00 Ry     beta= 0.70
     Davidson diagonalization with overlap
     ethr =  1.37E-06,  avg # of iterations =  4.5

     negative rho (up, down):  2.043E-06 0.000E+00

     total cpu time spent up to now is      101.5 secs

     total energy              =    -430.11942449 Ry
     estimated scf accuracy    <       0.00062648 Ry

     iteration #  3     ecut=    65.00 Ry     beta= 0.70
     Davidson diagonalization with overlap
     ethr =  1.20E-06,  avg # of iterations =  2.5

     negative rho (up, down):  4.546E-08 0.000E+00

     total cpu time spent up to now is      102.5 secs

     total energy              =    -430.11962411 Ry
     estimated scf accuracy    <       0.00001956 Ry

     iteration #  4     ecut=    65.00 Ry     beta= 0.70
[...]
   -23.9884 -23.9884 -18.6949 -18.6949 -18.6917 -18.6917 -18.6917 -18.6917
   -17.6928 -17.6928 -17.6922 -17.6922 -17.6922 -17.6922 -12.1072 -12.1072
   -10.8343 -10.8343 -10.8331 -10.8331 -10.8291 -10.8291 -10.8213 -10.8213
   -10.8114 -10.8114  -9.0035  -9.0035  -9.0018  -9.0018  -8.9808  -8.9808
    -7.3987  -7.3987  -7.3896  -7.3896  -7.1849  -7.1849  -6.7342  -6.7342
    -6.7337  -6.7337  -6.6676  -6.6676  -2.6836  -2.6836  -2.6717  -2.6717
    -2.6668  -2.6668  -1.3925  -1.3925   0.3197   0.3197

          k = 0.0000-0.5774 0.0000 ( 18732 PWs)   bands (ev):

  -117.6952-117.6952 -79.6879 -79.6879 -61.4214 -61.4214 -61.4203 -61.4203
   -22.5160 -22.5160 -22.5128 -22.5128 -19.6767 -19.6767 -19.6751 -19.6751
   -14.9344 -14.9344 -14.9338 -14.9338 -13.3918 -13.3918 -13.3909 -13.3909
   -11.8181 -11.8181 -11.8176 -11.8176 -10.8538 -10.8538 -10.8177 -10.8177
   -10.3726 -10.3726 -10.3024 -10.3024  -9.4383  -9.4383  -9.4381  -9.4381
    -9.0074  -9.0074  -8.9696  -8.9696  -8.9521  -8.9521  -7.1735  -7.1735
    -7.1182  -7.1182  -6.3744  -6.3744  -2.1113  -2.1113  -1.5031  -1.5031
    -1.4981  -1.4981  -0.2639  -0.2639   0.6808   0.6808

     the Fermi energy is    -5.5272 ev

!    total energy              =    -430.11964538 Ry
     estimated scf accuracy    <          5.9E-13 Ry
     smearing contrib. (-TS)   =      -0.00000000 Ry
     internal energy E=F+TS    =    -430.11964538 Ry

     The total energy is F=E-TS. E is the sum of the following terms:
     one-electron contribution =   -1843.08139329 Ry
     hartree contribution      =     917.00526822 Ry
     xc contribution           =     -89.63943912 Ry
     ewald contribution        =     585.63982765 Ry
     DFT-D3 Dispersion         =      -0.04390884 Ry

     convergence has been achieved in   7 iterations

     Forces acting on atoms (cartesian axes, Ry/au):

     atom    1 type  1   force =     0.00000000    0.00003613    0.00000260
     atom    2 type  1   force =     0.00003129   -0.00001806    0.00000260
     atom    3 type  1   force =     0.00000000   -0.00000000    0.00000255
     atom    4 type  1   force =    -0.00003129   -0.00001806    0.00000260
     atom    5 type  1   force =    -0.00001358    0.00000784    0.00001638
     atom    6 type  1   force =     0.00000000   -0.00001568    0.00001638
     atom    7 type  1   force =     0.00001358    0.00000784    0.00001638
     atom    8 type  1   force =     0.00000000    0.00000000   -0.00007557
     atom    9 type  2   force =     0.00000000   -0.00000000    0.00001609

     Total force =     0.000107     Total SCF correction =     0.000003


     Computing stress (Cartesian axis) and pressure

          total   stress  (Ry/bohr**3)                   (kbar)     P=        0.60
   0.00002154   0.00000000   0.00000000            3.17        0.00        0.00
   0.00000000   0.00002154  -0.00000000            0.00        3.17       -0.00
   0.00000000  -0.00000000  -0.00003075            0.00       -0.00       -4.52

     Energy error            =      1.3E-07 Ry
     Gradient error          =      7.6E-05 Ry/Bohr

     number of scf cycles    =  15
     number of bfgs steps    =  14

     energy             old  =    -430.1196452567 Ry
     energy             new  =    -430.1196453850 Ry

     CASE: energy            _new < energy            _old

     new trust radius        =       0.0005485354 bohr
     new conv_thr            =            1.0E-12 Ry


ATOMIC_POSITIONS (angstrom)
C                0.0000000000        0.0001571270        7.4565354400
C               -1.2278641734        2.1268796706        7.4565354400
C                2.4560000900       -0.0000000000        7.4633663197
C                1.2278636074        2.1268796706        7.4565354400
C                1.2279274446        0.7090279961        7.4605012715
C               -0.0000003780        2.8358605447        7.4605012715
C                3.6840723994        0.7090279961        7.4605012715
C                2.4559997120        2.8359442390        7.4512738917
Hg               2.4559997120        2.8359442390       10.8342496777



     Writing config-only to output data dir ./outputs/c_hg.save/ :
     XML data file
     NEW-OLD atomic charge density approx. for the potential

     total cpu time spent up to now is      147.5 secs

     per-process dynamical memory:    80.3 Mb

     Self-consistent Calculation

     iteration #  1     ecut=    65.00 Ry     beta= 0.70
     Davidson diagonalization with overlap
     ethr =  1.00E-06,  avg # of iterations =  2.0

     Threshold (ethr) on eigenvalues was too large:
     Diagonalizing with lowered threshold

     Davidson diagonalization with overlap
     ethr =  5.24E-10,  avg # of iterations =  4.0

     total cpu time spent up to now is      149.7 secs

     total energy              =    -430.11964540 Ry
     estimated scf accuracy    <       0.00000001 Ry

     iteration #  2     ecut=    65.00 Ry     beta= 0.70
     Davidson diagonalization with overlap
     ethr =  2.54E-11,  avg # of iterations =  2.5

     total cpu time spent up to now is      150.7 secs

     total energy              =    -430.11964540 Ry
     estimated scf accuracy    <          5.8E-09 Ry

     iteration #  3     ecut=    65.00 Ry     beta= 0.70
     Davidson diagonalization with overlap
     ethr =  1.12E-11,  avg # of iterations =  2.0

     total cpu time spent up to now is      151.7 secs

     total energy              =    -430.11964540 Ry
     estimated scf accuracy    <          8.9E-10 Ry

     iteration #  4     ecut=    65.00 Ry     beta= 0.70
     Davidson diagonalization with overlap
     ethr =  1.72E-12,  avg # of iterations =  2.0

     total cpu time spent up to now is      152.6 secs

     total energy              =    -430.11964540 Ry
     estimated scf accuracy    <          1.2E-10 Ry

     iteration #  5     ecut=    65.00 Ry     beta= 0.70
     Davidson diagonalization with overlap
     ethr =  2.26E-13,  avg # of iterations =  2.0

     total cpu time spent up to now is      153.6 secs

     total energy              =    -430.11964540 Ry
     estimated scf accuracy    <          1.3E-11 Ry

     iteration #  6     ecut=    65.00 Ry     beta= 0.70
     Davidson diagonalization with overlap
     ethr =  1.00E-13,  avg # of iterations =  1.5

     total cpu time spent up to now is      154.5 secs

     total energy              =    -430.11964540 Ry
     estimated scf accuracy    <          1.2E-12 Ry

     iteration #  7     ecut=    65.00 Ry     beta= 0.70
     Davidson diagonalization with overlap
     ethr =  1.00E-13,  avg # of iterations =  1.0

     total cpu time spent up to now is      155.3 secs

     End of self-consistent calculation

          k = 0.0000 0.0000 0.0000 ( 18643 PWs)   bands (ev):

  -117.6952-117.6952 -79.6879 -79.6879 -61.4214 -61.4214 -61.4204 -61.4204
   -23.9882 -23.9882 -18.6945 -18.6945 -18.6916 -18.6916 -18.6916 -18.6916
   -17.6928 -17.6928 -17.6919 -17.6919 -17.6919 -17.6919 -12.1069 -12.1069
   -10.8341 -10.8341 -10.8329 -10.8329 -10.8291 -10.8291 -10.8212 -10.8212
   -10.8114 -10.8114  -9.0036  -9.0036  -9.0019  -9.0019  -8.9808  -8.9808
    -7.3986  -7.3986  -7.3894  -7.3894  -7.1848  -7.1848  -6.7340  -6.7340
    -6.7336  -6.7336  -6.6675  -6.6675  -2.6834  -2.6834  -2.6714  -2.6714
    -2.6667  -2.6667  -1.3926  -1.3926   0.3200   0.3200

          k = 0.0000-0.5774 0.0000 ( 18732 PWs)   bands (ev):

  -117.6952-117.6952 -79.6879 -79.6879 -61.4214 -61.4214 -61.4204 -61.4204
   -22.5157 -22.5157 -22.5127 -22.5127 -19.6765 -19.6765 -19.6750 -19.6750
   -14.9342 -14.9342 -14.9337 -14.9337 -13.3916 -13.3916 -13.3907 -13.3907
   -11.8180 -11.8180 -11.8174 -11.8174 -10.8538 -10.8538 -10.8177 -10.8177
   -10.3724 -10.3724 -10.3023 -10.3023  -9.4381  -9.4381  -9.4379  -9.4379
    -9.0074  -9.0074  -8.9696  -8.9696  -8.9522  -8.9522  -7.1733  -7.1733
    -7.1181  -7.1181  -6.3745  -6.3745  -2.1114  -2.1114  -1.5029  -1.5029
    -1.4978  -1.4978  -0.2640  -0.2640   0.6807   0.6807

     the Fermi energy is    -5.5273 ev

!    total energy              =    -430.11964540 Ry
     estimated scf accuracy    <          1.0E-13 Ry
     smearing contrib. (-TS)   =      -0.00000000 Ry
     internal energy E=F+TS    =    -430.11964540 Ry

     The total energy is F=E-TS. E is the sum of the following terms:
     one-electron contribution =   -1842.94828360 Ry
     hartree contribution      =     916.93887654 Ry
     xc contribution           =     -89.63942736 Ry
     ewald contribution        =     585.57309438 Ry
     DFT-D3 Dispersion         =      -0.04390536 Ry

     convergence has been achieved in   7 iterations

     Forces acting on atoms (cartesian axes, Ry/au):

     atom    1 type  1   force =    -0.00000000   -0.00002690    0.00001037
     atom    2 type  1   force =    -0.00002330    0.00001345    0.00001037
     atom    3 type  1   force =     0.00000000    0.00000000   -0.00002268
     atom    4 type  1   force =     0.00002330    0.00001345    0.00001037
     atom    5 type  1   force =     0.00001151   -0.00000664    0.00000854
     atom    6 type  1   force =     0.00000000    0.00001329    0.00000854
     atom    7 type  1   force =    -0.00001151   -0.00000664    0.00000854
     atom    8 type  1   force =     0.00000000   -0.00000000   -0.00003901
     atom    9 type  2   force =     0.00000000   -0.00000000    0.00000495

     Total force =     0.000073     Total SCF correction =     0.000001


     Computing stress (Cartesian axis) and pressure

          total   stress  (Ry/bohr**3)                   (kbar)     P=        0.60
   0.00002153   0.00000000   0.00000000            3.17        0.00        0.00
   0.00000000   0.00002153   0.00000000            0.00        3.17        0.00
   0.00000000  -0.00000000  -0.00003079            0.00       -0.00       -4.53

     Energy error            =      1.5E-08 Ry
     Gradient error          =      3.9E-05 Ry/Bohr

     number of scf cycles    =  16
     number of bfgs steps    =  15

     energy             old  =    -430.1196453850 Ry
     energy             new  =    -430.1196454005 Ry

     CASE: energy            _new < energy            _old

     new trust radius        =       0.0003489887 bohr
     new conv_thr            =            1.0E-12 Ry


ATOMIC_POSITIONS (angstrom)
C               -0.0000000000        0.0001469095        7.4565157538
C               -1.2278730219        2.1268847794        7.4565157538
C                2.4560000900       -0.0000000000        7.4633384978
C                1.2278724559        2.1268847793        7.4565157538
C                1.2279319639        0.7090253869        7.4604872431
C               -0.0000003780        2.8358657631        7.4604872431
C                3.6840678801        0.7090253869        7.4604872431
C                2.4559997120        2.8359442390        7.4512181807
Hg               2.4559997120        2.8359442390       10.8344343546



     Writing config-only to output data dir ./outputs/c_hg.save/ :
     XML data file
     NEW-OLD atomic charge density approx. for the potential

     total cpu time spent up to now is      156.0 secs

     per-process dynamical memory:    80.3 Mb

     Self-consistent Calculation

     iteration #  1     ecut=    65.00 Ry     beta= 0.70
     Davidson diagonalization with overlap
     ethr =  1.00E-06,  avg # of iterations =  2.0

     Threshold (ethr) on eigenvalues was too large:
     Diagonalizing with lowered threshold

     Davidson diagonalization with overlap
     ethr =  3.82E-10,  avg # of iterations =  4.0

     total cpu time spent up to now is      158.0 secs

     total energy              =    -430.11964540 Ry
     estimated scf accuracy    <          3.4E-09 Ry

     iteration #  2     ecut=    65.00 Ry     beta= 0.70
     Davidson diagonalization with overlap
     ethr =  6.56E-12,  avg # of iterations =  3.0

     total cpu time spent up to now is      159.1 secs

     total energy              =    -430.11964540 Ry
     estimated scf accuracy    <          1.6E-09 Ry

     iteration #  3     ecut=    65.00 Ry     beta= 0.70
     Davidson diagonalization with overlap
     ethr =  3.07E-12,  avg # of iterations =  2.0

     total cpu time spent up to now is      160.1 secs

     total energy              =    -430.11964540 Ry
     estimated scf accuracy    <          3.0E-10 Ry

     iteration #  4     ecut=    65.00 Ry     beta= 0.70
     Davidson diagonalization with overlap
     ethr =  5.84E-13,  avg # of iterations =  2.0

     total cpu time spent up to now is      161.1 secs

     total energy              =    -430.11964540 Ry
     estimated scf accuracy    <          3.2E-11 Ry

     iteration #  5     ecut=    65.00 Ry     beta= 0.70
     Davidson diagonalization with overlap
     ethr =  1.00E-13,  avg # of iterations =  2.0

     total cpu time spent up to now is      162.0 secs

     total energy              =    -430.11964540 Ry
     estimated scf accuracy    <          2.7E-12 Ry

     iteration #  6     ecut=    65.00 Ry     beta= 0.70
     Davidson diagonalization with overlap
     ethr =  1.00E-13,  avg # of iterations =  1.0

     total cpu time spent up to now is      162.8 secs

     End of self-consistent calculation

          k = 0.0000 0.0000 0.0000 ( 18643 PWs)   bands (ev):

  -117.6952-117.6952 -79.6880 -79.6880 -61.4214 -61.4214 -61.4204 -61.4204
   -23.9881 -23.9881 -18.6945 -18.6945 -18.6914 -18.6914 -18.6914 -18.6914
   -17.6926 -17.6926 -17.6919 -17.6919 -17.6919 -17.6919 -12.1068 -12.1068
   -10.8341 -10.8341 -10.8329 -10.8329 -10.8289 -10.8289 -10.8212 -10.8212
   -10.8114 -10.8114  -9.0036  -9.0036  -9.0019  -9.0019  -8.9808  -8.9808
    -7.3985  -7.3985  -7.3893  -7.3893  -7.1848  -7.1848  -6.7339  -6.7339
    -6.7334  -6.7334  -6.6675  -6.6675  -2.6833  -2.6833  -2.6713  -2.6713
    -2.6666  -2.6666  -1.3927  -1.3927   0.3201   0.3201

          k = 0.0000-0.5774 0.0000 ( 18732 PWs)   bands (ev):

  -117.6952-117.6952 -79.6880 -79.6880 -61.4214 -61.4214 -61.4204 -61.4204
   -22.5157 -22.5157 -22.5125 -22.5125 -19.6764 -19.6764 -19.6748 -19.6748
   -14.9341 -14.9341 -14.9335 -14.9335 -13.3915 -13.3915 -13.3906 -13.3906
   -11.8178 -11.8178 -11.8173 -11.8173 -10.8537 -10.8537 -10.8177 -10.8177
   -10.3723 -10.3723 -10.3022 -10.3022  -9.4380  -9.4380  -9.4378  -9.4378
    -9.0074  -9.0074  -8.9696  -8.9696  -8.9522  -8.9522  -7.1732  -7.1732
    -7.1179  -7.1179  -6.3746  -6.3746  -2.1114  -2.1114  -1.5028  -1.5028
    -1.4978  -1.4978  -0.2641  -0.2641   0.6807   0.6807

     the Fermi energy is    -5.5273 ev

!    total energy              =    -430.11964540 Ry
     estimated scf accuracy    <          1.4E-13 Ry
     smearing contrib. (-TS)   =      -0.00000000 Ry
     internal energy E=F+TS    =    -430.11964540 Ry

     The total energy is F=E-TS. E is the sum of the following terms:
     one-electron contribution =   -1842.86380935 Ry
     hartree contribution      =     916.89674052 Ry
     xc contribution           =     -89.63942099 Ry
     ewald contribution        =     585.53074754 Ry
     DFT-D3 Dispersion         =      -0.04390312 Ry

     convergence has been achieved in   6 iterations

     Forces acting on atoms (cartesian axes, Ry/au):

     atom    1 type  1   force =    -0.00000000    0.00000510    0.00000737
     atom    2 type  1   force =     0.00000442   -0.00000255    0.00000737
     atom    3 type  1   force =     0.00000000    0.00000000   -0.00001714
     atom    4 type  1   force =    -0.00000442   -0.00000255    0.00000737
     atom    5 type  1   force =    -0.00000304    0.00000175    0.00000477
     atom    6 type  1   force =     0.00000000   -0.00000350    0.00000477
     atom    7 type  1   force =     0.00000304    0.00000175    0.00000477
     atom    8 type  1   force =     0.00000000    0.00000000   -0.00001736
     atom    9 type  2   force =     0.00000000   -0.00000000   -0.00000193

     Total force =     0.000031     Total SCF correction =     0.000001


     Computing stress (Cartesian axis) and pressure

          total   stress  (Ry/bohr**3)                   (kbar)     P=        0.60
   0.00002153   0.00000000   0.00000000            3.17        0.00        0.00
   0.00000000   0.00002153  -0.00000000            0.00        3.17       -0.00
   0.00000000   0.00000000  -0.00003080            0.00        0.00       -4.53

     Energy error            =      4.0E-09 Ry
     Gradient error          =      1.7E-05 Ry/Bohr

     bfgs converged in  17 scf cycles and  16 bfgs steps
     (criteria: energy <  1.0E-08 Ry, force <  1.0E-04 Ry/Bohr)

     End of BFGS Geometry Optimization

     Final energy             =    -430.1196454044 Ry

     File ./outputs/c_hg.bfgs deleted, as requested
Begin final coordinates

ATOMIC_POSITIONS (angstrom)
C               -0.0000000000        0.0001469095        7.4565157538
C               -1.2278730219        2.1268847794        7.4565157538
C                2.4560000900       -0.0000000000        7.4633384978
C                1.2278724559        2.1268847793        7.4565157538
C                1.2279319639        0.7090253869        7.4604872431
C               -0.0000003780        2.8358657631        7.4604872431
C                3.6840678801        0.7090253869        7.4604872431
C                2.4559997120        2.8359442390        7.4512181807
Hg               2.4559997120        2.8359442390       10.8344343546
End final coordinates



     Writing all to output data dir ./outputs/c_hg.save/ :
     XML data file, charge density, pseudopotentials, collected wavefunctions

     init_run     :      0.58s CPU      0.72s WALL (       1 calls)
     electrons    :    144.55s CPU    150.09s WALL (      17 calls)
     update_pot   :      0.34s CPU      0.37s WALL (      16 calls)
     forces       :      3.17s CPU      3.23s WALL (      17 calls)
     force_dftd3  :      0.68s CPU      0.69s WALL (      17 calls)
     stress       :      8.68s CPU      8.85s WALL (      17 calls)
     stres_dftd3  :      0.70s CPU      0.70s WALL (      17 calls)

     Called by init_run:
     wfcinit      :      0.38s CPU      0.49s WALL (       1 calls)
     potinit      :      0.02s CPU      0.03s WALL (       1 calls)
     hinit0       :      0.03s CPU      0.04s WALL (       1 calls)

     Called by electrons:
     c_bands      :    124.41s CPU    128.78s WALL (     140 calls)
     sum_band     :     15.64s CPU     16.40s WALL (     140 calls)
     v_of_rho     :      2.00s CPU      2.10s WALL (     145 calls)
     mix_rho      :      1.87s CPU      2.07s WALL (     140 calls)
     energy_dftd3 :      0.49s CPU      0.49s WALL (      17 calls)

     Called by c_bands:
     init_us_2    :      1.39s CPU      1.41s WALL (     630 calls)
     cegterg      :    116.35s CPU    120.65s WALL (     280 calls)

     Called by *egterg:
     cdiaghg      :      2.04s CPU      2.12s WALL (    1060 calls)
     h_psi        :     87.63s CPU     91.76s WALL (    1118 calls)
     g_psi        :      0.33s CPU      0.33s WALL (     836 calls)

     Called by h_psi:
     h_psi:calbec :      8.40s CPU      8.59s WALL (    1118 calls)
     vloc_psi     :     73.08s CPU     76.95s WALL (    1118 calls)
                                        0.00s GPU  (    1118 calls)
     add_vuspsi   :      5.58s CPU      5.60s WALL (    1118 calls)

     General routines
     calbec       :     15.11s CPU     15.37s WALL (    1696 calls)
     fft          :      2.51s CPU      2.66s WALL (    2741 calls)
     ffts         :      0.37s CPU      0.38s WALL (     560 calls)
     fftw         :     81.12s CPU     85.34s WALL (  219476 calls)

     Parallel routines

     PWSCF        :   2m37.53s CPU   2m43.58s WALL


   This run was terminated on:  13:38:36  19Sep2025            

=------------------------------------------------------------------------------=
   JOB DONE.
=------------------------------------------------------------------------------=
