 argument  1 = /lustre/ukt/milias/work/projects/open-collection/theoretical_chemistry/projects/adsorbate_on_surface/on_quartz/quartz/nwchem/Quartz-G_molecular_slab_153atoms/ecp/Bi_on_quartz/crenbl_ecp/frequencies/BiQ.ecp_revpbe-d3bj_rodft_freq_restart.nw



============================== echo of input deck ==============================
echo

restart Bi_on_Q

permanent_dir /lustre/ukt/milias/scratch/Bi_on_Q_crenbl_ecp

freq
 animate
end

task dft frequencies

================================================================================


                                         
                                         


             Northwest Computational Chemistry Package (NWChem) 7.2.0
             --------------------------------------------------------


                    Environmental Molecular Sciences Laboratory
                       Pacific Northwest National Laboratory
                                Richland, WA 99352

                              Copyright (c) 1994-2022
                       Pacific Northwest National Laboratory
                            Battelle Memorial Institute

             NWChem is an open-source computational chemistry package
                        distributed under the terms of the
                      Educational Community License (ECL) 2.0
             A copy of the license is included with this distribution
                              in the LICENSE.TXT file

                                  ACKNOWLEDGMENT
                                  --------------

            This software and its documentation were developed at the
            EMSL at Pacific Northwest National Laboratory, a multiprogram
            national laboratory, operated for the U.S. Department of Energy
            by Battelle under Contract Number DE-AC05-76RL01830. Support
            for this work was provided by the Department of Energy Office
            of Biological and Environmental Research, Office of Basic
            Energy Sciences, and the Office of Advanced Scientific Computing.


           Job information
           ---------------

    hostname        = lxbk1150
    program         = /lustre/ukt/milias/work/software/nwchem/nwchem-7.2.0_gnu_openmpi_openblas/bin/LINUX64/nwchem
    date            = Fri Aug 25 00:28:06 2023

    compiled        = Sun_Jul_02_11:55:06_2023
    source          = /lustre/ukt/milias/work/software/nwchem/nwchem-7.2.0_gnu_openmpi_openblas
    nwchem branch   = 7.2.0
    nwchem revision = v7.2.0-beta1-192-gd0d141fdfb
    ga revision     = 5.8.0
    use scalapack   = F
    input           = /lustre/ukt/milias/work/projects/open-collection/theoretical_chemistry/projects/adsorbate_on_surface/on_quartz/quartz/nwchem/Quartz-G_molecular_slab_153atoms/ecp/Bi_on_quartz/crenbl_ecp/frequencies/BiQ.ecp_revpbe-d3bj_rodft_freq_restart.nw
    prefix          = Bi_on_Q.
    data base       = /lustre/ukt/milias/scratch/Bi_on_Q_crenbl_ecp/Bi_on_Q.db
    status          = restart
    nproc           =      140
    time left       =     -1s



           Memory information
           ------------------

    heap     =   26214400 doubles =    200.0 Mbytes
    stack    =   26214397 doubles =    200.0 Mbytes
    global   =   52428800 doubles =    400.0 Mbytes (distinct from heap & stack)
    total    =  104857597 doubles =    800.0 Mbytes
    verify   = yes
    hardfail = no 


           Directory information
           ---------------------

  0 permanent = /lustre/ukt/milias/scratch/Bi_on_Q_crenbl_ecp
  0 scratch   = .


           Previous task information
           -------------------------

    Theory    = dft                             
    Operation = freq                          
    Status    = ok                            
    Qmmm      = F
    Ignore    = F


           Geometries in the database
           --------------------------

       Name                              Natoms  Last Modified
       --------------------------------  ------  ------------------------
    1  geometry                             154  Fri Aug 18 19:31:19 2023  
    2  reference                            154  Mon Aug 21 21:53:45 2023  

  The geometry named "geometry" is the default for restart



           Basis sets in the database
           --------------------------

       Name                              Natoms  Last Modified
        --------------------------------  ------  ------------------------
    1  ao basis                               0  Fri Aug 18 19:31:19 2023  
    2  ecp basis                              2  Fri Aug 18 19:31:19 2023  

  The basis set named "ao basis" is the default AO basis for restart




                                NWChem Input Module
                                -------------------




                   NWChem Nuclear Hessian and Frequency Analysis
                   ---------------------------------------------

 RODFT detected


                         NWChem Finite-difference Hessian
                         --------------------------------


 *** Warning continue called for but no  ***
 *** fd restart file for nuclear hessian ***
 *** starting from scratch so to speak   ***

                                 NWChem DFT Module
                                 -----------------


                                   Bi@Quartz ecp



  Caching 1-el integrals 


         Total DFT energy =    -5018.373028480532
      One electron energy =   -55283.862261085647
           Coulomb energy =    26830.491964761419
    Exchange-Corr. energy =     -615.636762301204
 Nuclear repulsion energy =    24050.634030144902

    Dispersion correction =       -0.570102299794

 Numeric. integr. density =      795.001100062032

     Total iterative time =    250.9s


  
 initial hessian

 zero matrix

  

                                 NWChem DFT Module
                                 -----------------


                                   Bi@Quartz ecp



  Caching 1-el integrals 


         Total DFT energy =    -5018.373024114798
      One electron energy =   -55283.616121161860
           Coulomb energy =    26830.362041548953
    Exchange-Corr. energy =     -615.636790581635
 Nuclear repulsion energy =    24050.517846079743

    Dispersion correction =       -0.570099514682

 Numeric. integr. density =      795.001099655205

     Total iterative time =     75.3s




                         DFT ENERGY GRADIENTS

    atom               coordinates                        gradient
                 x          y          z           x          y          z
   1 O       7.521794   3.253009   8.117096    0.000920   0.000902   0.000960
   2 H      -3.611695 -10.953315   0.548059    0.000000   0.000000   0.000000
   3 H       9.995762  18.188570  -4.877595    0.000000   0.000000   0.000000
   4 Si     -2.824713 -16.219753  -5.733618    0.000000   0.000000   0.000000
   5 Si      0.996854 -14.476442   1.806283    0.000000   0.000000   0.000000
   6 Si      3.807516  -7.546573   9.292100    0.000000   0.000000   0.000000
   7 H       2.990858  11.828996   1.518862    0.000000   0.000000   0.000000
   8 Si     -6.437628  -9.238318  -2.842924    0.000000   0.000000   0.000000
   9 Si      0.374974  -4.553213   1.981832    0.000000   0.000000   0.000000
  10 Si      6.981757   1.230063   5.797783    0.000000   0.000000   0.000000
  11 H      -4.048155   5.954060   4.982442    0.000000   0.000000   0.000000
  12 Si     -8.833612  -1.023421   2.510250    0.000000   0.000000   0.000000
  13 Si     -0.896163   4.523849   1.166465    0.000000   0.000000   0.000000
  14 Si      7.239015   9.006962  -0.267878    0.000000   0.000000   0.000000
  15 H      -3.111198 -14.791618  -0.707930    0.000000   0.000000   0.000000
  16 Si     -7.930815   8.278734   6.401022    0.000000   0.000000   0.000000
  17 Si     -1.439777  13.461582   1.562591    0.000000   0.000000   0.000000
  18 Si      5.590260  15.992525  -5.336269    0.000000   0.000000   0.000000
  19 O      -5.744265  -1.218174   3.229487    0.000000   0.000000   0.000000
  20 O       5.313298  -9.504821  -8.006619    0.000000   0.000000   0.000000
  21 O      12.042519  -8.919805   0.788290    0.000000   0.000000   0.000000
  22 O      -2.464665  11.882690   4.062409    0.000000   0.000000   0.000000
  23 O       1.605140   5.087654   3.016919    0.000000   0.000000   0.000000
  24 O      -3.317051  -3.522650  -8.648617    0.000000   0.000000   0.000000
  25 O       7.992575  -1.718065  -5.663168    0.000000   0.000000   0.000000
  26 O       4.168221  15.653930  -2.580000    0.000000   0.000000   0.000000
  27 O       8.943788  11.519318   0.463395    0.000000   0.000000   0.000000
  28 O      -8.064909   4.479422  -5.270596    0.000000   0.000000   0.000000
  29 O       0.091197   4.807433  -7.792656    0.000000   0.000000   0.000000
  30 H      -4.464194  -2.552858   3.104413    0.000000   0.000000   0.000000
  31 H      -9.177308   7.110500  11.032992    0.000000   0.000000   0.000000
  32 O       4.613094   8.889748   1.472642    0.000000   0.000000   0.000000
  33 O       1.158638  -3.380768   4.793673    0.000000   0.000000   0.000000
  34 O      -3.608032  -9.434717 -10.432474    0.000000   0.000000   0.000000
  35 O      -9.824129   1.936827   2.517332    0.000000   0.000000   0.000000
  36 Si     -8.897251   6.875177  -3.441398    0.000000   0.000000   0.000000
  37 Si     -0.012858   7.971731  -7.556586    0.000000   0.000000   0.000000
  38 O       3.515547  -9.014313  -3.193248    0.000000   0.000000   0.000000
  39 O       9.384558  -5.862438   3.973518    0.000000   0.000000   0.000000
  40 H       9.705066  13.112906   0.824879    0.000000   0.000000   0.000000
  41 H      -6.515531 -14.513177  -3.139396    0.000000   0.000000   0.000000
  42 Si     -2.556791 -10.385524  -7.632430    0.000000   0.000000   0.000000
  43 O      -9.726856   6.695149   4.342168    0.000000   0.000000   0.000000
  44 O      -2.675264  11.907117  -0.933466    0.000000   0.000000   0.000000
  45 O      -4.975002   7.330378   5.780089    0.000000   0.000000   0.000000
  46 Si      3.877441  -9.281811  -0.087227    0.000000   0.000000   0.000000
  47 O      -1.722318   8.779170  -5.056168    0.000000   0.000000   0.000000
  48 H      -3.162255  10.497225   5.039961    0.000000   0.000000   0.000000
  49 H       9.220162   8.266647  -9.410024    0.000000   0.000000   0.000000
  50 Si      8.831897  -4.678179   6.830921    0.000000   0.000000   0.000000
  51 O      -6.229321   8.440006  -2.759366    0.000000   0.000000   0.000000
  52 O       1.697633  13.145584   1.307783    0.000000   0.000000   0.000000
  53 O       2.761225 -12.048365   0.906606    0.000000   0.000000   0.000000
  54 O       6.477851   9.158019  -3.324118    0.000000   0.000000   0.000000
  55 O     -11.408130  -3.280263  -4.870939    0.000000   0.000000   0.000000
  56 O       8.408389  17.355133  -5.038640    0.000000   0.000000   0.000000
  57 O       6.395923  -6.222006   8.108166    0.000000   0.000000   0.000000
  58 H      -4.491123 -19.826920  -8.641631    0.000000   0.000000   0.000000
  59 O      -1.385780  -0.934256  -4.625819    0.000000   0.000000   0.000000
  60 H       7.752684   4.484624   9.411236    0.000000   0.000000   0.000000
  61 H      -4.228620   1.717419   3.228294    0.000000   0.000000   0.000000
  62 O      -8.127432  11.364491   5.948293    0.000000   0.000000   0.000000
  63 O       8.032130   1.812070  -1.952852    0.000000   0.000000   0.000000
  64 H     -12.111468   9.897200  -5.648936    0.000000   0.000000   0.000000
  65 O      -7.825101  -6.449727  -2.875287    0.000000   0.000000   0.000000
  66 O      -2.262267  16.475579   1.561481    0.000000   0.000000   0.000000
  67 H      -1.934781   9.958304 -11.632422    0.000000   0.000000   0.000000
  68 O       3.843853  17.641158  -7.359376    0.000000   0.000000   0.000000
  69 H      12.831592  -5.039399   9.690993    0.000000   0.000000   0.000000
  70 H      14.373758   2.452827   0.157075    0.000000   0.000000   0.000000
  71 H     -15.899266   4.828510   2.510754    0.000000   0.000000   0.000000
  72 H       6.523976 -10.363138  -9.028255    0.000000   0.000000   0.000000
  73 H      13.486365  -9.986897   0.645410    0.000000   0.000000   0.000000
  74 O      -4.569388  -9.549016  -5.345337    0.000000   0.000000   0.000000
  75 O       2.084902  -7.068912   1.254923    0.000000   0.000000   0.000000
  76 H      -3.014668  -5.027606  -9.607110    0.000000   0.000000   0.000000
  77 H       8.341821  -3.190776  -6.651609    0.000000   0.000000   0.000000
  78 O       7.865645   8.450891  -8.229601    0.000000   0.000000   0.000000
  79 O       2.939416   8.929680  -7.065525    0.000000   0.000000   0.000000
  80 O      -8.749278   7.516443   9.331244    0.000000   0.000000   0.000000
  81 O      -1.872686 -14.193667   0.542393    0.000000   0.000000   0.000000
  82 H     -10.347809 -12.139837  -2.922934    0.000000   0.000000   0.000000
  83 O       7.985534  -1.664879   6.502492    0.000000   0.000000   0.000000
  84 O       3.285367  -5.052276  -6.365321    0.000000   0.000000   0.000000
  85 O       9.556002  -4.772548  -1.073421    0.000000   0.000000   0.000000
  86 O       2.750144  -9.784553   7.391712    0.000000   0.000000   0.000000
  87 H      -7.145418   3.257464  -6.275581    0.000000   0.000000   0.000000
  88 O      -4.249062   1.587801  -7.838517    0.000000   0.000000   0.000000
  89 O       6.627894   3.218163  -6.659847    0.000000   0.000000   0.000000
  90 H       1.326070  -3.870265   6.580918    0.000000   0.000000   0.000000
  91 O       0.268063  -9.173290  -7.078234    0.000000   0.000000   0.000000
  92 O     -10.953780   8.769372  -4.855288    0.000000   0.000000   0.000000
  93 O      -1.209040   9.195537 -10.170078    0.000000   0.000000   0.000000
  94 O      -8.642774 -11.537201  -2.924094    0.000000   0.000000   0.000000
  95 O       6.862000  -8.701740   0.629540    0.000000   0.000000   0.000000
  96 H       1.041085   3.272022  -7.637769    0.000000   0.000000   0.000000
  97 O     -10.097693   5.856212  -0.708794    0.000000   0.000000   0.000000
  98 O      -2.680891  -5.367664   2.000133    0.000000   0.000000   0.000000
  99 H       2.602818   3.952214   4.107216    0.000000   0.000000   0.000000
 100 H      -4.280549  -9.212353 -12.092448    0.000000   0.000000   0.000000
 101 O      11.359679  -4.930837   8.657928    0.000000   0.000000   0.000000
 102 H       3.256135  15.049491  -1.089645    0.000000   0.000000   0.000000
 103 O      -9.036419  -2.187204  -0.411588    0.000000   0.000000   0.000000
 104 O     -10.506023  -2.762642   4.506144    0.000000   0.000000   0.000000
 105 H     -12.924373  -2.962935  -5.792702    0.000000   0.000000   0.000000
 106 Si    -10.981785   4.854913   2.132003    0.000000   0.000000   0.000000
 107 O       0.009894   2.399498  -0.974890    0.000000   0.000000   0.000000
 108 O       0.849939  -2.434120  -0.271917    0.000000   0.000000   0.000000
 109 O      -6.386200  -2.082963  -4.858395    0.000000   0.000000   0.000000
 110 Si     -3.218535   9.158719  -2.313492    0.000000   0.000000   0.000000
 111 H       2.242289 -11.095454   6.238429    0.000000   0.000000   0.000000
 112 H       6.923311   4.836593  -7.458436    0.000000   0.000000   0.000000
 113 H       3.298299  -3.262895  -6.075289    0.000000   0.000000   0.000000
 114 Si      5.817608   9.911693  -6.299124    0.000000   0.000000   0.000000
 115 O      -1.972236   7.018594  -0.337386    0.000000   0.000000   0.000000
 116 O      -3.937919 -18.493701  -7.562117    0.000000   0.000000   0.000000
 117 O       3.874287   1.007017   5.205914    0.000000   0.000000   0.000000
 118 H       3.396369   7.696835   2.240607    0.000000   0.000000   0.000000
 119 O       8.768678   6.292660   0.190867    0.000000   0.000000   0.000000
 120 H     -11.476155  -3.689311   5.708829    0.000000   0.000000   0.000000
 121 H       0.422243 -14.896990   6.670276    0.000000   0.000000   0.000000
 122 Si     -8.735312  -3.435496  -3.263714    0.000000   0.000000   0.000000
 123 H      -3.780895  -6.728854   1.398189    0.000000   0.000000   0.000000
 124 H       0.469979  -4.210963  10.522032    0.000000   0.000000   0.000000
 125 O      -0.215348 -17.056272  -4.243536    0.000000   0.000000   0.000000
 126 Si      0.782188  -0.217131  -2.486418    0.000000   0.000000   0.000000
 127 O       3.584064   0.093213  -3.911288    0.000000   0.000000   0.000000
 128 O      -4.943546 -15.399852  -3.477546    0.000000   0.000000   0.000000
 129 O       2.295245 -17.185876   0.813551    0.000000   0.000000   0.000000
 130 Si      9.522024   3.252654   0.434367    0.000000   0.000000   0.000000
 131 H       2.616750  -0.338281   4.975205    0.000000   0.000000   0.000000
 132 O     -14.104382   4.784602   2.368567    0.000000   0.000000   0.000000
 133 O      -4.678487  -9.678270  -0.249940    0.000000   0.000000   0.000000
 134 O       0.813883 -14.485763   4.954665    0.000000   0.000000   0.000000
 135 O      12.600430   2.762723   0.232642    0.000000   0.000000   0.000000
 136 O      -2.445687 -13.526926  -7.347043    0.000000   0.000000   0.000000
 137 O       4.361370  -8.672689  12.167319    0.000000   0.000000   0.000000
 138 O       1.620183  -5.229727   9.553511    0.000000   0.000000   0.000000
 139 Si      3.126789  -8.165204  -6.206914    0.000000   0.000000   0.000000
 140 Si     -3.869549  -1.266333  -6.557924    0.000000   0.000000   0.000000
 141 H       1.055261 -17.330768  -2.974211    0.000000   0.000000   0.000000
 142 H       3.289010 -18.694143   0.776017    0.000000   0.000000   0.000000
 143 Si      9.540356  -7.058958   1.063597    0.000000   0.000000   0.000000
 144 Si      6.592691   0.888990  -4.579814    0.000000   0.000000   0.000000
 145 H       4.781536  -9.322698  13.794641    0.000000   0.000000   0.000000
 146 O       5.985402  13.033201  -6.456207    0.000000   0.000000   0.000000
 147 O      -3.143523   3.207824   2.941996    0.000000   0.000000   0.000000
 148 H       9.338863  -3.465732  -2.319513    0.000000   0.000000   0.000000
 149 O       8.391736   2.194372   3.163398    0.000000   0.000000   0.000000
 150 H      -3.299824   3.089696  -8.288715    0.000000   0.000000   0.000000
 151 H       2.758059  18.551309  -8.470087    0.000000   0.000000   0.000000
 152 H      -2.611122  18.240421   1.477523    0.000000   0.000000   0.000000
 153 H      -7.877626  13.098701   5.521157    0.000000   0.000000   0.000000
 154 Bi     -2.582123   1.405271   9.600185    0.000000   0.000000   0.000000


                                 NWChem DFT Module
                                 -----------------


                                   Bi@Quartz ecp



  Caching 1-el integrals 


         Total DFT energy =    -5018.373023510775
      One electron energy =   -55284.108544794843
           Coulomb energy =    26830.622472793497
    Exchange-Corr. energy =     -615.636846379064
 Nuclear repulsion energy =    24050.749894869634

    Dispersion correction =       -0.570105083736

 Numeric. integr. density =      795.001100519089

     Total iterative time =     77.4s




                         DFT ENERGY GRADIENTS

    atom               coordinates                        gradient
                 x          y          z           x          y          z
   1 O       7.501794   3.253009   8.117096   -0.000946  -0.000928  -0.000995
   2 H      -3.611695 -10.953315   0.548059    0.000000   0.000000   0.000000
   3 H       9.995762  18.188570  -4.877595    0.000000   0.000000   0.000000
   4 Si     -2.824713 -16.219753  -5.733618    0.000000   0.000000   0.000000
   5 Si      0.996854 -14.476442   1.806283    0.000000   0.000000   0.000000
   6 Si      3.807516  -7.546573   9.292100    0.000000   0.000000   0.000000
   7 H       2.990858  11.828996   1.518862    0.000000   0.000000   0.000000
   8 Si     -6.437628  -9.238318  -2.842924    0.000000   0.000000   0.000000
   9 Si      0.374974  -4.553213   1.981832    0.000000   0.000000   0.000000
  10 Si      6.981757   1.230063   5.797783    0.000000   0.000000   0.000000
  11 H      -4.048155   5.954060   4.982442    0.000000   0.000000   0.000000
  12 Si     -8.833612  -1.023421   2.510250    0.000000   0.000000   0.000000
  13 Si     -0.896163   4.523849   1.166465    0.000000   0.000000   0.000000
  14 Si      7.239015   9.006962  -0.267878    0.000000   0.000000   0.000000
  15 H      -3.111198 -14.791618  -0.707930    0.000000   0.000000   0.000000
  16 Si     -7.930815   8.278734   6.401022    0.000000   0.000000   0.000000
  17 Si     -1.439777  13.461582   1.562591    0.000000   0.000000   0.000000
  18 Si      5.590260  15.992525  -5.336269    0.000000   0.000000   0.000000
  19 O      -5.744265  -1.218174   3.229487    0.000000   0.000000   0.000000
  20 O       5.313298  -9.504821  -8.006619    0.000000   0.000000   0.000000
  21 O      12.042519  -8.919805   0.788290    0.000000   0.000000   0.000000
  22 O      -2.464665  11.882690   4.062409    0.000000   0.000000   0.000000
  23 O       1.605140   5.087654   3.016919    0.000000   0.000000   0.000000
  24 O      -3.317051  -3.522650  -8.648617    0.000000   0.000000   0.000000
  25 O       7.992575  -1.718065  -5.663168    0.000000   0.000000   0.000000
  26 O       4.168221  15.653930  -2.580000    0.000000   0.000000   0.000000
  27 O       8.943788  11.519318   0.463395    0.000000   0.000000   0.000000
  28 O      -8.064909   4.479422  -5.270596    0.000000   0.000000   0.000000
  29 O       0.091197   4.807433  -7.792656    0.000000   0.000000   0.000000
  30 H      -4.464194  -2.552858   3.104413    0.000000   0.000000   0.000000
  31 H      -9.177308   7.110500  11.032992    0.000000   0.000000   0.000000
  32 O       4.613094   8.889748   1.472642    0.000000   0.000000   0.000000
  33 O       1.158638  -3.380768   4.793673    0.000000   0.000000   0.000000
  34 O      -3.608032  -9.434717 -10.432474    0.000000   0.000000   0.000000
  35 O      -9.824129   1.936827   2.517332    0.000000   0.000000   0.000000
  36 Si     -8.897251   6.875177  -3.441398    0.000000   0.000000   0.000000
  37 Si     -0.012858   7.971731  -7.556586    0.000000   0.000000   0.000000
  38 O       3.515547  -9.014313  -3.193248    0.000000   0.000000   0.000000
  39 O       9.384558  -5.862438   3.973518    0.000000   0.000000   0.000000
  40 H       9.705066  13.112906   0.824879    0.000000   0.000000   0.000000
  41 H      -6.515531 -14.513177  -3.139396    0.000000   0.000000   0.000000
  42 Si     -2.556791 -10.385524  -7.632430    0.000000   0.000000   0.000000
  43 O      -9.726856   6.695149   4.342168    0.000000   0.000000   0.000000
  44 O      -2.675264  11.907117  -0.933466    0.000000   0.000000   0.000000
  45 O      -4.975002   7.330378   5.780089    0.000000   0.000000   0.000000
  46 Si      3.877441  -9.281811  -0.087227    0.000000   0.000000   0.000000
  47 O      -1.722318   8.779170  -5.056168    0.000000   0.000000   0.000000
  48 H      -3.162255  10.497225   5.039961    0.000000   0.000000   0.000000
  49 H       9.220162   8.266647  -9.410024    0.000000   0.000000   0.000000
  50 Si      8.831897  -4.678179   6.830921    0.000000   0.000000   0.000000
  51 O      -6.229321   8.440006  -2.759366    0.000000   0.000000   0.000000
  52 O       1.697633  13.145584   1.307783    0.000000   0.000000   0.000000
  53 O       2.761225 -12.048365   0.906606    0.000000   0.000000   0.000000
  54 O       6.477851   9.158019  -3.324118    0.000000   0.000000   0.000000
  55 O     -11.408130  -3.280263  -4.870939    0.000000   0.000000   0.000000
  56 O       8.408389  17.355133  -5.038640    0.000000   0.000000   0.000000
  57 O       6.395923  -6.222006   8.108166    0.000000   0.000000   0.000000
  58 H      -4.491123 -19.826920  -8.641631    0.000000   0.000000   0.000000
  59 O      -1.385780  -0.934256  -4.625819    0.000000   0.000000   0.000000
  60 H       7.752684   4.484624   9.411236    0.000000   0.000000   0.000000
  61 H      -4.228620   1.717419   3.228294    0.000000   0.000000   0.000000
  62 O      -8.127432  11.364491   5.948293    0.000000   0.000000   0.000000
  63 O       8.032130   1.812070  -1.952852    0.000000   0.000000   0.000000
  64 H     -12.111468   9.897200  -5.648936    0.000000   0.000000   0.000000
  65 O      -7.825101  -6.449727  -2.875287    0.000000   0.000000   0.000000
  66 O      -2.262267  16.475579   1.561481    0.000000   0.000000   0.000000
  67 H      -1.934781   9.958304 -11.632422    0.000000   0.000000   0.000000
  68 O       3.843853  17.641158  -7.359376    0.000000   0.000000   0.000000
  69 H      12.831592  -5.039399   9.690993    0.000000   0.000000   0.000000
  70 H      14.373758   2.452827   0.157075    0.000000   0.000000   0.000000
  71 H     -15.899266   4.828510   2.510754    0.000000   0.000000   0.000000
  72 H       6.523976 -10.363138  -9.028255    0.000000   0.000000   0.000000
  73 H      13.486365  -9.986897   0.645410    0.000000   0.000000   0.000000
  74 O      -4.569388  -9.549016  -5.345337    0.000000   0.000000   0.000000
  75 O       2.084902  -7.068912   1.254923    0.000000   0.000000   0.000000
  76 H      -3.014668  -5.027606  -9.607110    0.000000   0.000000   0.000000
  77 H       8.341821  -3.190776  -6.651609    0.000000   0.000000   0.000000
  78 O       7.865645   8.450891  -8.229601    0.000000   0.000000   0.000000
  79 O       2.939416   8.929680  -7.065525    0.000000   0.000000   0.000000
  80 O      -8.749278   7.516443   9.331244    0.000000   0.000000   0.000000
  81 O      -1.872686 -14.193667   0.542393    0.000000   0.000000   0.000000
  82 H     -10.347809 -12.139837  -2.922934    0.000000   0.000000   0.000000
  83 O       7.985534  -1.664879   6.502492    0.000000   0.000000   0.000000
  84 O       3.285367  -5.052276  -6.365321    0.000000   0.000000   0.000000
  85 O       9.556002  -4.772548  -1.073421    0.000000   0.000000   0.000000
  86 O       2.750144  -9.784553   7.391712    0.000000   0.000000   0.000000
  87 H      -7.145418   3.257464  -6.275581    0.000000   0.000000   0.000000
  88 O      -4.249062   1.587801  -7.838517    0.000000   0.000000   0.000000
  89 O       6.627894   3.218163  -6.659847    0.000000   0.000000   0.000000
  90 H       1.326070  -3.870265   6.580918    0.000000   0.000000   0.000000
  91 O       0.268063  -9.173290  -7.078234    0.000000   0.000000   0.000000
  92 O     -10.953780   8.769372  -4.855288    0.000000   0.000000   0.000000
  93 O      -1.209040   9.195537 -10.170078    0.000000   0.000000   0.000000
  94 O      -8.642774 -11.537201  -2.924094    0.000000   0.000000   0.000000
  95 O       6.862000  -8.701740   0.629540    0.000000   0.000000   0.000000
  96 H       1.041085   3.272022  -7.637769    0.000000   0.000000   0.000000
  97 O     -10.097693   5.856212  -0.708794    0.000000   0.000000   0.000000
  98 O      -2.680891  -5.367664   2.000133    0.000000   0.000000   0.000000
  99 H       2.602818   3.952214   4.107216    0.000000   0.000000   0.000000
 100 H      -4.280549  -9.212353 -12.092448    0.000000   0.000000   0.000000
 101 O      11.359679  -4.930837   8.657928    0.000000   0.000000   0.000000
 102 H       3.256135  15.049491  -1.089645    0.000000   0.000000   0.000000
 103 O      -9.036419  -2.187204  -0.411588    0.000000   0.000000   0.000000
 104 O     -10.506023  -2.762642   4.506144    0.000000   0.000000   0.000000
 105 H     -12.924373  -2.962935  -5.792702    0.000000   0.000000   0.000000
 106 Si    -10.981785   4.854913   2.132003    0.000000   0.000000   0.000000
 107 O       0.009894   2.399498  -0.974890    0.000000   0.000000   0.000000
 108 O       0.849939  -2.434120  -0.271917    0.000000   0.000000   0.000000
 109 O      -6.386200  -2.082963  -4.858395    0.000000   0.000000   0.000000
 110 Si     -3.218535   9.158719  -2.313492    0.000000   0.000000   0.000000
 111 H       2.242289 -11.095454   6.238429    0.000000   0.000000   0.000000
 112 H       6.923311   4.836593  -7.458436    0.000000   0.000000   0.000000
 113 H       3.298299  -3.262895  -6.075289    0.000000   0.000000   0.000000
 114 Si      5.817608   9.911693  -6.299124    0.000000   0.000000   0.000000
 115 O      -1.972236   7.018594  -0.337386    0.000000   0.000000   0.000000
 116 O      -3.937919 -18.493701  -7.562117    0.000000   0.000000   0.000000
 117 O       3.874287   1.007017   5.205914    0.000000   0.000000   0.000000
 118 H       3.396369   7.696835   2.240607    0.000000   0.000000   0.000000
 119 O       8.768678   6.292660   0.190867    0.000000   0.000000   0.000000
 120 H     -11.476155  -3.689311   5.708829    0.000000   0.000000   0.000000
 121 H       0.422243 -14.896990   6.670276    0.000000   0.000000   0.000000
 122 Si     -8.735312  -3.435496  -3.263714    0.000000   0.000000   0.000000
 123 H      -3.780895  -6.728854   1.398189    0.000000   0.000000   0.000000
 124 H       0.469979  -4.210963  10.522032    0.000000   0.000000   0.000000
 125 O      -0.215348 -17.056272  -4.243536    0.000000   0.000000   0.000000
 126 Si      0.782188  -0.217131  -2.486418    0.000000   0.000000   0.000000
 127 O       3.584064   0.093213  -3.911288    0.000000   0.000000   0.000000
 128 O      -4.943546 -15.399852  -3.477546    0.000000   0.000000   0.000000
 129 O       2.295245 -17.185876   0.813551    0.000000   0.000000   0.000000
 130 Si      9.522024   3.252654   0.434367    0.000000   0.000000   0.000000
 131 H       2.616750  -0.338281   4.975205    0.000000   0.000000   0.000000
 132 O     -14.104382   4.784602   2.368567    0.000000   0.000000   0.000000
 133 O      -4.678487  -9.678270  -0.249940    0.000000   0.000000   0.000000
 134 O       0.813883 -14.485763   4.954665    0.000000   0.000000   0.000000
 135 O      12.600430   2.762723   0.232642    0.000000   0.000000   0.000000
 136 O      -2.445687 -13.526926  -7.347043    0.000000   0.000000   0.000000
 137 O       4.361370  -8.672689  12.167319    0.000000   0.000000   0.000000
 138 O       1.620183  -5.229727   9.553511    0.000000   0.000000   0.000000
 139 Si      3.126789  -8.165204  -6.206914    0.000000   0.000000   0.000000
 140 Si     -3.869549  -1.266333  -6.557924    0.000000   0.000000   0.000000
 141 H       1.055261 -17.330768  -2.974211    0.000000   0.000000   0.000000
 142 H       3.289010 -18.694143   0.776017    0.000000   0.000000   0.000000
 143 Si      9.540356  -7.058958   1.063597    0.000000   0.000000   0.000000
 144 Si      6.592691   0.888990  -4.579814    0.000000   0.000000   0.000000
 145 H       4.781536  -9.322698  13.794641    0.000000   0.000000   0.000000
 146 O       5.985402  13.033201  -6.456207    0.000000   0.000000   0.000000
 147 O      -3.143523   3.207824   2.941996    0.000000   0.000000   0.000000
 148 H       9.338863  -3.465732  -2.319513    0.000000   0.000000   0.000000
 149 O       8.391736   2.194372   3.163398    0.000000   0.000000   0.000000
 150 H      -3.299824   3.089696  -8.288715    0.000000   0.000000   0.000000
 151 H       2.758059  18.551309  -8.470087    0.000000   0.000000   0.000000
 152 H      -2.611122  18.240421   1.477523    0.000000   0.000000   0.000000
 153 H      -7.877626  13.098701   5.521157    0.000000   0.000000   0.000000
 154 Bi     -2.582123   1.405271   9.600185    0.000000   0.000000   0.000000


                                 NWChem DFT Module
                                 -----------------


                                   Bi@Quartz ecp



  Caching 1-el integrals 


         Total DFT energy =    -5018.373005395654
      One electron energy =   -55283.663895112804
           Coulomb energy =    26830.388466630789
    Exchange-Corr. energy =     -615.637184564458
 Nuclear repulsion energy =    24050.539607650819

    Dispersion correction =       -0.570097161738

 Numeric. integr. density =      795.001100767578

     Total iterative time =     75.7s




                         DFT ENERGY GRADIENTS

    atom               coordinates                        gradient
                 x          y          z           x          y          z
   1 O       7.511794   3.263009   8.117096    0.000914   0.004911   0.004556
   2 H      -3.611695 -10.953315   0.548059    0.000000   0.000000   0.000000
   3 H       9.995762  18.188570  -4.877595    0.000000   0.000000   0.000000
   4 Si     -2.824713 -16.219753  -5.733618    0.000000   0.000000   0.000000
   5 Si      0.996854 -14.476442   1.806283    0.000000   0.000000   0.000000
   6 Si      3.807516  -7.546573   9.292100    0.000000   0.000000   0.000000
   7 H       2.990858  11.828996   1.518862    0.000000   0.000000   0.000000
   8 Si     -6.437628  -9.238318  -2.842924    0.000000   0.000000   0.000000
   9 Si      0.374974  -4.553213   1.981832    0.000000   0.000000   0.000000
  10 Si      6.981757   1.230063   5.797783    0.000000   0.000000   0.000000
  11 H      -4.048155   5.954060   4.982442    0.000000   0.000000   0.000000
  12 Si     -8.833612  -1.023421   2.510250    0.000000   0.000000   0.000000
  13 Si     -0.896163   4.523849   1.166465    0.000000   0.000000   0.000000
  14 Si      7.239015   9.006962  -0.267878    0.000000   0.000000   0.000000
  15 H      -3.111198 -14.791618  -0.707930    0.000000   0.000000   0.000000
  16 Si     -7.930815   8.278734   6.401022    0.000000   0.000000   0.000000
  17 Si     -1.439777  13.461582   1.562591    0.000000   0.000000   0.000000
  18 Si      5.590260  15.992525  -5.336269    0.000000   0.000000   0.000000
  19 O      -5.744265  -1.218174   3.229487    0.000000   0.000000   0.000000
  20 O       5.313298  -9.504821  -8.006619    0.000000   0.000000   0.000000
  21 O      12.042519  -8.919805   0.788290    0.000000   0.000000   0.000000
  22 O      -2.464665  11.882690   4.062409    0.000000   0.000000   0.000000
  23 O       1.605140   5.087654   3.016919    0.000000   0.000000   0.000000
  24 O      -3.317051  -3.522650  -8.648617    0.000000   0.000000   0.000000
  25 O       7.992575  -1.718065  -5.663168    0.000000   0.000000   0.000000
  26 O       4.168221  15.653930  -2.580000    0.000000   0.000000   0.000000
  27 O       8.943788  11.519318   0.463395    0.000000   0.000000   0.000000
  28 O      -8.064909   4.479422  -5.270596    0.000000   0.000000   0.000000
  29 O       0.091197   4.807433  -7.792656    0.000000   0.000000   0.000000
  30 H      -4.464194  -2.552858   3.104413    0.000000   0.000000   0.000000
  31 H      -9.177308   7.110500  11.032992    0.000000   0.000000   0.000000
  32 O       4.613094   8.889748   1.472642    0.000000   0.000000   0.000000
  33 O       1.158638  -3.380768   4.793673    0.000000   0.000000   0.000000
  34 O      -3.608032  -9.434717 -10.432474    0.000000   0.000000   0.000000
  35 O      -9.824129   1.936827   2.517332    0.000000   0.000000   0.000000
  36 Si     -8.897251   6.875177  -3.441398    0.000000   0.000000   0.000000
  37 Si     -0.012858   7.971731  -7.556586    0.000000   0.000000   0.000000
  38 O       3.515547  -9.014313  -3.193248    0.000000   0.000000   0.000000
  39 O       9.384558  -5.862438   3.973518    0.000000   0.000000   0.000000
  40 H       9.705066  13.112906   0.824879    0.000000   0.000000   0.000000
  41 H      -6.515531 -14.513177  -3.139396    0.000000   0.000000   0.000000
  42 Si     -2.556791 -10.385524  -7.632430    0.000000   0.000000   0.000000
  43 O      -9.726856   6.695149   4.342168    0.000000   0.000000   0.000000
  44 O      -2.675264  11.907117  -0.933466    0.000000   0.000000   0.000000
  45 O      -4.975002   7.330378   5.780089    0.000000   0.000000   0.000000
  46 Si      3.877441  -9.281811  -0.087227    0.000000   0.000000   0.000000
  47 O      -1.722318   8.779170  -5.056168    0.000000   0.000000   0.000000
  48 H      -3.162255  10.497225   5.039961    0.000000   0.000000   0.000000
  49 H       9.220162   8.266647  -9.410024    0.000000   0.000000   0.000000
  50 Si      8.831897  -4.678179   6.830921    0.000000   0.000000   0.000000
  51 O      -6.229321   8.440006  -2.759366    0.000000   0.000000   0.000000
  52 O       1.697633  13.145584   1.307783    0.000000   0.000000   0.000000
  53 O       2.761225 -12.048365   0.906606    0.000000   0.000000   0.000000
  54 O       6.477851   9.158019  -3.324118    0.000000   0.000000   0.000000
  55 O     -11.408130  -3.280263  -4.870939    0.000000   0.000000   0.000000
  56 O       8.408389  17.355133  -5.038640    0.000000   0.000000   0.000000
  57 O       6.395923  -6.222006   8.108166    0.000000   0.000000   0.000000
  58 H      -4.491123 -19.826920  -8.641631    0.000000   0.000000   0.000000
  59 O      -1.385780  -0.934256  -4.625819    0.000000   0.000000   0.000000
  60 H       7.752684   4.484624   9.411236    0.000000   0.000000   0.000000
  61 H      -4.228620   1.717419   3.228294    0.000000   0.000000   0.000000
  62 O      -8.127432  11.364491   5.948293    0.000000   0.000000   0.000000
  63 O       8.032130   1.812070  -1.952852    0.000000   0.000000   0.000000
  64 H     -12.111468   9.897200  -5.648936    0.000000   0.000000   0.000000
  65 O      -7.825101  -6.449727  -2.875287    0.000000   0.000000   0.000000
  66 O      -2.262267  16.475579   1.561481    0.000000   0.000000   0.000000
  67 H      -1.934781   9.958304 -11.632422    0.000000   0.000000   0.000000
  68 O       3.843853  17.641158  -7.359376    0.000000   0.000000   0.000000
  69 H      12.831592  -5.039399   9.690993    0.000000   0.000000   0.000000
  70 H      14.373758   2.452827   0.157075    0.000000   0.000000   0.000000
  71 H     -15.899266   4.828510   2.510754    0.000000   0.000000   0.000000
  72 H       6.523976 -10.363138  -9.028255    0.000000   0.000000   0.000000
  73 H      13.486365  -9.986897   0.645410    0.000000   0.000000   0.000000
  74 O      -4.569388  -9.549016  -5.345337    0.000000   0.000000   0.000000
  75 O       2.084902  -7.068912   1.254923    0.000000   0.000000   0.000000
  76 H      -3.014668  -5.027606  -9.607110    0.000000   0.000000   0.000000
  77 H       8.341821  -3.190776  -6.651609    0.000000   0.000000   0.000000
  78 O       7.865645   8.450891  -8.229601    0.000000   0.000000   0.000000
  79 O       2.939416   8.929680  -7.065525    0.000000   0.000000   0.000000
  80 O      -8.749278   7.516443   9.331244    0.000000   0.000000   0.000000
  81 O      -1.872686 -14.193667   0.542393    0.000000   0.000000   0.000000
  82 H     -10.347809 -12.139837  -2.922934    0.000000   0.000000   0.000000
  83 O       7.985534  -1.664879   6.502492    0.000000   0.000000   0.000000
  84 O       3.285367  -5.052276  -6.365321    0.000000   0.000000   0.000000
  85 O       9.556002  -4.772548  -1.073421    0.000000   0.000000   0.000000
  86 O       2.750144  -9.784553   7.391712    0.000000   0.000000   0.000000
  87 H      -7.145418   3.257464  -6.275581    0.000000   0.000000   0.000000
  88 O      -4.249062   1.587801  -7.838517    0.000000   0.000000   0.000000
  89 O       6.627894   3.218163  -6.659847    0.000000   0.000000   0.000000
  90 H       1.326070  -3.870265   6.580918    0.000000   0.000000   0.000000
  91 O       0.268063  -9.173290  -7.078234    0.000000   0.000000   0.000000
  92 O     -10.953780   8.769372  -4.855288    0.000000   0.000000   0.000000
  93 O      -1.209040   9.195537 -10.170078    0.000000   0.000000   0.000000
  94 O      -8.642774 -11.537201  -2.924094    0.000000   0.000000   0.000000
  95 O       6.862000  -8.701740   0.629540    0.000000   0.000000   0.000000
  96 H       1.041085   3.272022  -7.637769    0.000000   0.000000   0.000000
  97 O     -10.097693   5.856212  -0.708794    0.000000   0.000000   0.000000
  98 O      -2.680891  -5.367664   2.000133    0.000000   0.000000   0.000000
  99 H       2.602818   3.952214   4.107216    0.000000   0.000000   0.000000
 100 H      -4.280549  -9.212353 -12.092448    0.000000   0.000000   0.000000
 101 O      11.359679  -4.930837   8.657928    0.000000   0.000000   0.000000
 102 H       3.256135  15.049491  -1.089645    0.000000   0.000000   0.000000
 103 O      -9.036419  -2.187204  -0.411588    0.000000   0.000000   0.000000
 104 O     -10.506023  -2.762642   4.506144    0.000000   0.000000   0.000000
 105 H     -12.924373  -2.962935  -5.792702    0.000000   0.000000   0.000000
 106 Si    -10.981785   4.854913   2.132003    0.000000   0.000000   0.000000
 107 O       0.009894   2.399498  -0.974890    0.000000   0.000000   0.000000
 108 O       0.849939  -2.434120  -0.271917    0.000000   0.000000   0.000000
 109 O      -6.386200  -2.082963  -4.858395    0.000000   0.000000   0.000000
 110 Si     -3.218535   9.158719  -2.313492    0.000000   0.000000   0.000000
 111 H       2.242289 -11.095454   6.238429    0.000000   0.000000   0.000000
 112 H       6.923311   4.836593  -7.458436    0.000000   0.000000   0.000000
 113 H       3.298299  -3.262895  -6.075289    0.000000   0.000000   0.000000
 114 Si      5.817608   9.911693  -6.299124    0.000000   0.000000   0.000000
 115 O      -1.972236   7.018594  -0.337386    0.000000   0.000000   0.000000
 116 O      -3.937919 -18.493701  -7.562117    0.000000   0.000000   0.000000
 117 O       3.874287   1.007017   5.205914    0.000000   0.000000   0.000000
 118 H       3.396369   7.696835   2.240607    0.000000   0.000000   0.000000
 119 O       8.768678   6.292660   0.190867    0.000000   0.000000   0.000000
 120 H     -11.476155  -3.689311   5.708829    0.000000   0.000000   0.000000
 121 H       0.422243 -14.896990   6.670276    0.000000   0.000000   0.000000
 122 Si     -8.735312  -3.435496  -3.263714    0.000000   0.000000   0.000000
 123 H      -3.780895  -6.728854   1.398189    0.000000   0.000000   0.000000
 124 H       0.469979  -4.210963  10.522032    0.000000   0.000000   0.000000
 125 O      -0.215348 -17.056272  -4.243536    0.000000   0.000000   0.000000
 126 Si      0.782188  -0.217131  -2.486418    0.000000   0.000000   0.000000
 127 O       3.584064   0.093213  -3.911288    0.000000   0.000000   0.000000
 128 O      -4.943546 -15.399852  -3.477546    0.000000   0.000000   0.000000
 129 O       2.295245 -17.185876   0.813551    0.000000   0.000000   0.000000
 130 Si      9.522024   3.252654   0.434367    0.000000   0.000000   0.000000
 131 H       2.616750  -0.338281   4.975205    0.000000   0.000000   0.000000
 132 O     -14.104382   4.784602   2.368567    0.000000   0.000000   0.000000
 133 O      -4.678487  -9.678270  -0.249940    0.000000   0.000000   0.000000
 134 O       0.813883 -14.485763   4.954665    0.000000   0.000000   0.000000
 135 O      12.600430   2.762723   0.232642    0.000000   0.000000   0.000000
 136 O      -2.445687 -13.526926  -7.347043    0.000000   0.000000   0.000000
 137 O       4.361370  -8.672689  12.167319    0.000000   0.000000   0.000000
 138 O       1.620183  -5.229727   9.553511    0.000000   0.000000   0.000000
 139 Si      3.126789  -8.165204  -6.206914    0.000000   0.000000   0.000000
 140 Si     -3.869549  -1.266333  -6.557924    0.000000   0.000000   0.000000
 141 H       1.055261 -17.330768  -2.974211    0.000000   0.000000   0.000000
 142 H       3.289010 -18.694143   0.776017    0.000000   0.000000   0.000000
 143 Si      9.540356  -7.058958   1.063597    0.000000   0.000000   0.000000
 144 Si      6.592691   0.888990  -4.579814    0.000000   0.000000   0.000000
 145 H       4.781536  -9.322698  13.794641    0.000000   0.000000   0.000000
 146 O       5.985402  13.033201  -6.456207    0.000000   0.000000   0.000000
 147 O      -3.143523   3.207824   2.941996    0.000000   0.000000   0.000000
 148 H       9.338863  -3.465732  -2.319513    0.000000   0.000000   0.000000
 149 O       8.391736   2.194372   3.163398    0.000000   0.000000   0.000000
 150 H      -3.299824   3.089696  -8.288715    0.000000   0.000000   0.000000
 151 H       2.758059  18.551309  -8.470087    0.000000   0.000000   0.000000
 152 H      -2.611122  18.240421   1.477523    0.000000   0.000000   0.000000
 153 H      -7.877626  13.098701   5.521157    0.000000   0.000000   0.000000
 154 Bi     -2.582123   1.405271   9.600185    0.000000   0.000000   0.000000


                                 NWChem DFT Module
                                 -----------------


                                   Bi@Quartz ecp



  Caching 1-el integrals 


         Total DFT energy =    -5018.373002459458
      One electron energy =   -55284.061466382591
           Coulomb energy =    26830.596393129512
    Exchange-Corr. energy =     -615.636476886353
 Nuclear repulsion energy =    24050.728547679973

    Dispersion correction =       -0.570107443443

 Numeric. integr. density =      795.001099372537

     Total iterative time =     77.4s




                         DFT ENERGY GRADIENTS

    atom               coordinates                        gradient
                 x          y          z           x          y          z
   1 O       7.511794   3.243009   8.117096   -0.000915  -0.004907  -0.004518
   2 H      -3.611695 -10.953315   0.548059    0.000000   0.000000   0.000000
   3 H       9.995762  18.188570  -4.877595    0.000000   0.000000   0.000000
   4 Si     -2.824713 -16.219753  -5.733618    0.000000   0.000000   0.000000
   5 Si      0.996854 -14.476442   1.806283    0.000000   0.000000   0.000000
   6 Si      3.807516  -7.546573   9.292100    0.000000   0.000000   0.000000
   7 H       2.990858  11.828996   1.518862    0.000000   0.000000   0.000000
   8 Si     -6.437628  -9.238318  -2.842924    0.000000   0.000000   0.000000
   9 Si      0.374974  -4.553213   1.981832    0.000000   0.000000   0.000000
  10 Si      6.981757   1.230063   5.797783    0.000000   0.000000   0.000000
  11 H      -4.048155   5.954060   4.982442    0.000000   0.000000   0.000000
  12 Si     -8.833612  -1.023421   2.510250    0.000000   0.000000   0.000000
  13 Si     -0.896163   4.523849   1.166465    0.000000   0.000000   0.000000
  14 Si      7.239015   9.006962  -0.267878    0.000000   0.000000   0.000000
  15 H      -3.111198 -14.791618  -0.707930    0.000000   0.000000   0.000000
  16 Si     -7.930815   8.278734   6.401022    0.000000   0.000000   0.000000
  17 Si     -1.439777  13.461582   1.562591    0.000000   0.000000   0.000000
  18 Si      5.590260  15.992525  -5.336269    0.000000   0.000000   0.000000
  19 O      -5.744265  -1.218174   3.229487    0.000000   0.000000   0.000000
  20 O       5.313298  -9.504821  -8.006619    0.000000   0.000000   0.000000
  21 O      12.042519  -8.919805   0.788290    0.000000   0.000000   0.000000
  22 O      -2.464665  11.882690   4.062409    0.000000   0.000000   0.000000
  23 O       1.605140   5.087654   3.016919    0.000000   0.000000   0.000000
  24 O      -3.317051  -3.522650  -8.648617    0.000000   0.000000   0.000000
  25 O       7.992575  -1.718065  -5.663168    0.000000   0.000000   0.000000
  26 O       4.168221  15.653930  -2.580000    0.000000   0.000000   0.000000
  27 O       8.943788  11.519318   0.463395    0.000000   0.000000   0.000000
  28 O      -8.064909   4.479422  -5.270596    0.000000   0.000000   0.000000
  29 O       0.091197   4.807433  -7.792656    0.000000   0.000000   0.000000
  30 H      -4.464194  -2.552858   3.104413    0.000000   0.000000   0.000000
  31 H      -9.177308   7.110500  11.032992    0.000000   0.000000   0.000000
  32 O       4.613094   8.889748   1.472642    0.000000   0.000000   0.000000
  33 O       1.158638  -3.380768   4.793673    0.000000   0.000000   0.000000
  34 O      -3.608032  -9.434717 -10.432474    0.000000   0.000000   0.000000
  35 O      -9.824129   1.936827   2.517332    0.000000   0.000000   0.000000
  36 Si     -8.897251   6.875177  -3.441398    0.000000   0.000000   0.000000
  37 Si     -0.012858   7.971731  -7.556586    0.000000   0.000000   0.000000
  38 O       3.515547  -9.014313  -3.193248    0.000000   0.000000   0.000000
  39 O       9.384558  -5.862438   3.973518    0.000000   0.000000   0.000000
  40 H       9.705066  13.112906   0.824879    0.000000   0.000000   0.000000
  41 H      -6.515531 -14.513177  -3.139396    0.000000   0.000000   0.000000
  42 Si     -2.556791 -10.385524  -7.632430    0.000000   0.000000   0.000000
  43 O      -9.726856   6.695149   4.342168    0.000000   0.000000   0.000000
  44 O      -2.675264  11.907117  -0.933466    0.000000   0.000000   0.000000
  45 O      -4.975002   7.330378   5.780089    0.000000   0.000000   0.000000
  46 Si      3.877441  -9.281811  -0.087227    0.000000   0.000000   0.000000
  47 O      -1.722318   8.779170  -5.056168    0.000000   0.000000   0.000000
  48 H      -3.162255  10.497225   5.039961    0.000000   0.000000   0.000000
  49 H       9.220162   8.266647  -9.410024    0.000000   0.000000   0.000000
  50 Si      8.831897  -4.678179   6.830921    0.000000   0.000000   0.000000
  51 O      -6.229321   8.440006  -2.759366    0.000000   0.000000   0.000000
  52 O       1.697633  13.145584   1.307783    0.000000   0.000000   0.000000
  53 O       2.761225 -12.048365   0.906606    0.000000   0.000000   0.000000
  54 O       6.477851   9.158019  -3.324118    0.000000   0.000000   0.000000
  55 O     -11.408130  -3.280263  -4.870939    0.000000   0.000000   0.000000
  56 O       8.408389  17.355133  -5.038640    0.000000   0.000000   0.000000
  57 O       6.395923  -6.222006   8.108166    0.000000   0.000000   0.000000
  58 H      -4.491123 -19.826920  -8.641631    0.000000   0.000000   0.000000
  59 O      -1.385780  -0.934256  -4.625819    0.000000   0.000000   0.000000
  60 H       7.752684   4.484624   9.411236    0.000000   0.000000   0.000000
  61 H      -4.228620   1.717419   3.228294    0.000000   0.000000   0.000000
  62 O      -8.127432  11.364491   5.948293    0.000000   0.000000   0.000000
  63 O       8.032130   1.812070  -1.952852    0.000000   0.000000   0.000000
  64 H     -12.111468   9.897200  -5.648936    0.000000   0.000000   0.000000
  65 O      -7.825101  -6.449727  -2.875287    0.000000   0.000000   0.000000
  66 O      -2.262267  16.475579   1.561481    0.000000   0.000000   0.000000
  67 H      -1.934781   9.958304 -11.632422    0.000000   0.000000   0.000000
  68 O       3.843853  17.641158  -7.359376    0.000000   0.000000   0.000000
  69 H      12.831592  -5.039399   9.690993    0.000000   0.000000   0.000000
  70 H      14.373758   2.452827   0.157075    0.000000   0.000000   0.000000
  71 H     -15.899266   4.828510   2.510754    0.000000   0.000000   0.000000
  72 H       6.523976 -10.363138  -9.028255    0.000000   0.000000   0.000000
  73 H      13.486365  -9.986897   0.645410    0.000000   0.000000   0.000000
  74 O      -4.569388  -9.549016  -5.345337    0.000000   0.000000   0.000000
  75 O       2.084902  -7.068912   1.254923    0.000000   0.000000   0.000000
  76 H      -3.014668  -5.027606  -9.607110    0.000000   0.000000   0.000000
  77 H       8.341821  -3.190776  -6.651609    0.000000   0.000000   0.000000
  78 O       7.865645   8.450891  -8.229601    0.000000   0.000000   0.000000
  79 O       2.939416   8.929680  -7.065525    0.000000   0.000000   0.000000
  80 O      -8.749278   7.516443   9.331244    0.000000   0.000000   0.000000
  81 O      -1.872686 -14.193667   0.542393    0.000000   0.000000   0.000000
  82 H     -10.347809 -12.139837  -2.922934    0.000000   0.000000   0.000000
  83 O       7.985534  -1.664879   6.502492    0.000000   0.000000   0.000000
  84 O       3.285367  -5.052276  -6.365321    0.000000   0.000000   0.000000
  85 O       9.556002  -4.772548  -1.073421    0.000000   0.000000   0.000000
  86 O       2.750144  -9.784553   7.391712    0.000000   0.000000   0.000000
  87 H      -7.145418   3.257464  -6.275581    0.000000   0.000000   0.000000
  88 O      -4.249062   1.587801  -7.838517    0.000000   0.000000   0.000000
  89 O       6.627894   3.218163  -6.659847    0.000000   0.000000   0.000000
  90 H       1.326070  -3.870265   6.580918    0.000000   0.000000   0.000000
  91 O       0.268063  -9.173290  -7.078234    0.000000   0.000000   0.000000
  92 O     -10.953780   8.769372  -4.855288    0.000000   0.000000   0.000000
  93 O      -1.209040   9.195537 -10.170078    0.000000   0.000000   0.000000
  94 O      -8.642774 -11.537201  -2.924094    0.000000   0.000000   0.000000
  95 O       6.862000  -8.701740   0.629540    0.000000   0.000000   0.000000
  96 H       1.041085   3.272022  -7.637769    0.000000   0.000000   0.000000
  97 O     -10.097693   5.856212  -0.708794    0.000000   0.000000   0.000000
  98 O      -2.680891  -5.367664   2.000133    0.000000   0.000000   0.000000
  99 H       2.602818   3.952214   4.107216    0.000000   0.000000   0.000000
 100 H      -4.280549  -9.212353 -12.092448    0.000000   0.000000   0.000000
 101 O      11.359679  -4.930837   8.657928    0.000000   0.000000   0.000000
 102 H       3.256135  15.049491  -1.089645    0.000000   0.000000   0.000000
 103 O      -9.036419  -2.187204  -0.411588    0.000000   0.000000   0.000000
 104 O     -10.506023  -2.762642   4.506144    0.000000   0.000000   0.000000
 105 H     -12.924373  -2.962935  -5.792702    0.000000   0.000000   0.000000
 106 Si    -10.981785   4.854913   2.132003    0.000000   0.000000   0.000000
 107 O       0.009894   2.399498  -0.974890    0.000000   0.000000   0.000000
 108 O       0.849939  -2.434120  -0.271917    0.000000   0.000000   0.000000
 109 O      -6.386200  -2.082963  -4.858395    0.000000   0.000000   0.000000
 110 Si     -3.218535   9.158719  -2.313492    0.000000   0.000000   0.000000
 111 H       2.242289 -11.095454   6.238429    0.000000   0.000000   0.000000
 112 H       6.923311   4.836593  -7.458436    0.000000   0.000000   0.000000
 113 H       3.298299  -3.262895  -6.075289    0.000000   0.000000   0.000000
 114 Si      5.817608   9.911693  -6.299124    0.000000   0.000000   0.000000
 115 O      -1.972236   7.018594  -0.337386    0.000000   0.000000   0.000000
 116 O      -3.937919 -18.493701  -7.562117    0.000000   0.000000   0.000000
 117 O       3.874287   1.007017   5.205914    0.000000   0.000000   0.000000
 118 H       3.396369   7.696835   2.240607    0.000000   0.000000   0.000000
 119 O       8.768678   6.292660   0.190867    0.000000   0.000000   0.000000
 120 H     -11.476155  -3.689311   5.708829    0.000000   0.000000   0.000000
 121 H       0.422243 -14.896990   6.670276    0.000000   0.000000   0.000000
 122 Si     -8.735312  -3.435496  -3.263714    0.000000   0.000000   0.000000
 123 H      -3.780895  -6.728854   1.398189    0.000000   0.000000   0.000000
 124 H       0.469979  -4.210963  10.522032    0.000000   0.000000   0.000000
 125 O      -0.215348 -17.056272  -4.243536    0.000000   0.000000   0.000000
 126 Si      0.782188  -0.217131  -2.486418    0.000000   0.000000   0.000000
 127 O       3.584064   0.093213  -3.911288    0.000000   0.000000   0.000000
 128 O      -4.943546 -15.399852  -3.477546    0.000000   0.000000   0.000000
 129 O       2.295245 -17.185876   0.813551    0.000000   0.000000   0.000000
 130 Si      9.522024   3.252654   0.434367    0.000000   0.000000   0.000000
 131 H       2.616750  -0.338281   4.975205    0.000000   0.000000   0.000000
 132 O     -14.104382   4.784602   2.368567    0.000000   0.000000   0.000000
 133 O      -4.678487  -9.678270  -0.249940    0.000000   0.000000   0.000000
 134 O       0.813883 -14.485763   4.954665    0.000000   0.000000   0.000000
 135 O      12.600430   2.762723   0.232642    0.000000   0.000000   0.000000
 136 O      -2.445687 -13.526926  -7.347043    0.000000   0.000000   0.000000
 137 O       4.361370  -8.672689  12.167319    0.000000   0.000000   0.000000
 138 O       1.620183  -5.229727   9.553511    0.000000   0.000000   0.000000
 139 Si      3.126789  -8.165204  -6.206914    0.000000   0.000000   0.000000
 140 Si     -3.869549  -1.266333  -6.557924    0.000000   0.000000   0.000000
 141 H       1.055261 -17.330768  -2.974211    0.000000   0.000000   0.000000
 142 H       3.289010 -18.694143   0.776017    0.000000   0.000000   0.000000
 143 Si      9.540356  -7.058958   1.063597    0.000000   0.000000   0.000000
 144 Si      6.592691   0.888990  -4.579814    0.000000   0.000000   0.000000
 145 H       4.781536  -9.322698  13.794641    0.000000   0.000000   0.000000
 146 O       5.985402  13.033201  -6.456207    0.000000   0.000000   0.000000
 147 O      -3.143523   3.207824   2.941996    0.000000   0.000000   0.000000
 148 H       9.338863  -3.465732  -2.319513    0.000000   0.000000   0.000000
 149 O       8.391736   2.194372   3.163398    0.000000   0.000000   0.000000
 150 H      -3.299824   3.089696  -8.288715    0.000000   0.000000   0.000000
 151 H       2.758059  18.551309  -8.470087    0.000000   0.000000   0.000000
 152 H      -2.611122  18.240421   1.477523    0.000000   0.000000   0.000000
 153 H      -7.877626  13.098701   5.521157    0.000000   0.000000   0.000000
 154 Bi     -2.582123   1.405271   9.600185    0.000000   0.000000   0.000000


                                 NWChem DFT Module
                                 -----------------


                                   Bi@Quartz ecp



  Caching 1-el integrals 


         Total DFT energy =    -5018.373001938612
      One electron energy =   -55283.444005298108
           Coulomb energy =    26830.272035375387
    Exchange-Corr. energy =     -615.637071838328
 Nuclear repulsion energy =    24050.436039822438

    Dispersion correction =       -0.570094244425

 Numeric. integr. density =      795.001099508970

     Total iterative time =     90.0s




                         DFT ENERGY GRADIENTS

    atom               coordinates                        gradient
                 x          y          z           x          y          z
   1 O       7.511794   3.253009   8.127096    0.000975   0.004558   0.005636
   2 H      -3.611695 -10.953315   0.548059    0.000000   0.000000   0.000000
   3 H       9.995762  18.188570  -4.877595    0.000000   0.000000   0.000000
   4 Si     -2.824713 -16.219753  -5.733618    0.000000   0.000000   0.000000
   5 Si      0.996854 -14.476442   1.806283    0.000000   0.000000   0.000000
   6 Si      3.807516  -7.546573   9.292100    0.000000   0.000000   0.000000
   7 H       2.990858  11.828996   1.518862    0.000000   0.000000   0.000000
   8 Si     -6.437628  -9.238318  -2.842924    0.000000   0.000000   0.000000
   9 Si      0.374974  -4.553213   1.981832    0.000000   0.000000   0.000000
  10 Si      6.981757   1.230063   5.797783    0.000000   0.000000   0.000000
  11 H      -4.048155   5.954060   4.982442    0.000000   0.000000   0.000000
  12 Si     -8.833612  -1.023421   2.510250    0.000000   0.000000   0.000000
  13 Si     -0.896163   4.523849   1.166465    0.000000   0.000000   0.000000
  14 Si      7.239015   9.006962  -0.267878    0.000000   0.000000   0.000000
  15 H      -3.111198 -14.791618  -0.707930    0.000000   0.000000   0.000000
  16 Si     -7.930815   8.278734   6.401022    0.000000   0.000000   0.000000
  17 Si     -1.439777  13.461582   1.562591    0.000000   0.000000   0.000000
  18 Si      5.590260  15.992525  -5.336269    0.000000   0.000000   0.000000
  19 O      -5.744265  -1.218174   3.229487    0.000000   0.000000   0.000000
  20 O       5.313298  -9.504821  -8.006619    0.000000   0.000000   0.000000
  21 O      12.042519  -8.919805   0.788290    0.000000   0.000000   0.000000
  22 O      -2.464665  11.882690   4.062409    0.000000   0.000000   0.000000
  23 O       1.605140   5.087654   3.016919    0.000000   0.000000   0.000000
  24 O      -3.317051  -3.522650  -8.648617    0.000000   0.000000   0.000000
  25 O       7.992575  -1.718065  -5.663168    0.000000   0.000000   0.000000
  26 O       4.168221  15.653930  -2.580000    0.000000   0.000000   0.000000
  27 O       8.943788  11.519318   0.463395    0.000000   0.000000   0.000000
  28 O      -8.064909   4.479422  -5.270596    0.000000   0.000000   0.000000
  29 O       0.091197   4.807433  -7.792656    0.000000   0.000000   0.000000
  30 H      -4.464194  -2.552858   3.104413    0.000000   0.000000   0.000000
  31 H      -9.177308   7.110500  11.032992    0.000000   0.000000   0.000000
  32 O       4.613094   8.889748   1.472642    0.000000   0.000000   0.000000
  33 O       1.158638  -3.380768   4.793673    0.000000   0.000000   0.000000
  34 O      -3.608032  -9.434717 -10.432474    0.000000   0.000000   0.000000
  35 O      -9.824129   1.936827   2.517332    0.000000   0.000000   0.000000
  36 Si     -8.897251   6.875177  -3.441398    0.000000   0.000000   0.000000
  37 Si     -0.012858   7.971731  -7.556586    0.000000   0.000000   0.000000
  38 O       3.515547  -9.014313  -3.193248    0.000000   0.000000   0.000000
  39 O       9.384558  -5.862438   3.973518    0.000000   0.000000   0.000000
  40 H       9.705066  13.112906   0.824879    0.000000   0.000000   0.000000
  41 H      -6.515531 -14.513177  -3.139396    0.000000   0.000000   0.000000
  42 Si     -2.556791 -10.385524  -7.632430    0.000000   0.000000   0.000000
  43 O      -9.726856   6.695149   4.342168    0.000000   0.000000   0.000000
  44 O      -2.675264  11.907117  -0.933466    0.000000   0.000000   0.000000
  45 O      -4.975002   7.330378   5.780089    0.000000   0.000000   0.000000
  46 Si      3.877441  -9.281811  -0.087227    0.000000   0.000000   0.000000
  47 O      -1.722318   8.779170  -5.056168    0.000000   0.000000   0.000000
  48 H      -3.162255  10.497225   5.039961    0.000000   0.000000   0.000000
  49 H       9.220162   8.266647  -9.410024    0.000000   0.000000   0.000000
  50 Si      8.831897  -4.678179   6.830921    0.000000   0.000000   0.000000
  51 O      -6.229321   8.440006  -2.759366    0.000000   0.000000   0.000000
  52 O       1.697633  13.145584   1.307783    0.000000   0.000000   0.000000
  53 O       2.761225 -12.048365   0.906606    0.000000   0.000000   0.000000
  54 O       6.477851   9.158019  -3.324118    0.000000   0.000000   0.000000
  55 O     -11.408130  -3.280263  -4.870939    0.000000   0.000000   0.000000
  56 O       8.408389  17.355133  -5.038640    0.000000   0.000000   0.000000
  57 O       6.395923  -6.222006   8.108166    0.000000   0.000000   0.000000
  58 H      -4.491123 -19.826920  -8.641631    0.000000   0.000000   0.000000
  59 O      -1.385780  -0.934256  -4.625819    0.000000   0.000000   0.000000
  60 H       7.752684   4.484624   9.411236    0.000000   0.000000   0.000000
  61 H      -4.228620   1.717419   3.228294    0.000000   0.000000   0.000000
  62 O      -8.127432  11.364491   5.948293    0.000000   0.000000   0.000000
  63 O       8.032130   1.812070  -1.952852    0.000000   0.000000   0.000000
  64 H     -12.111468   9.897200  -5.648936    0.000000   0.000000   0.000000
  65 O      -7.825101  -6.449727  -2.875287    0.000000   0.000000   0.000000
  66 O      -2.262267  16.475579   1.561481    0.000000   0.000000   0.000000
  67 H      -1.934781   9.958304 -11.632422    0.000000   0.000000   0.000000
  68 O       3.843853  17.641158  -7.359376    0.000000   0.000000   0.000000
  69 H      12.831592  -5.039399   9.690993    0.000000   0.000000   0.000000
  70 H      14.373758   2.452827   0.157075    0.000000   0.000000   0.000000
  71 H     -15.899266   4.828510   2.510754    0.000000   0.000000   0.000000
  72 H       6.523976 -10.363138  -9.028255    0.000000   0.000000   0.000000
  73 H      13.486365  -9.986897   0.645410    0.000000   0.000000   0.000000
  74 O      -4.569388  -9.549016  -5.345337    0.000000   0.000000   0.000000
  75 O       2.084902  -7.068912   1.254923    0.000000   0.000000   0.000000
  76 H      -3.014668  -5.027606  -9.607110    0.000000   0.000000   0.000000
  77 H       8.341821  -3.190776  -6.651609    0.000000   0.000000   0.000000
  78 O       7.865645   8.450891  -8.229601    0.000000   0.000000   0.000000
  79 O       2.939416   8.929680  -7.065525    0.000000   0.000000   0.000000
  80 O      -8.749278   7.516443   9.331244    0.000000   0.000000   0.000000
  81 O      -1.872686 -14.193667   0.542393    0.000000   0.000000   0.000000
  82 H     -10.347809 -12.139837  -2.922934    0.000000   0.000000   0.000000
  83 O       7.985534  -1.664879   6.502492    0.000000   0.000000   0.000000
  84 O       3.285367  -5.052276  -6.365321    0.000000   0.000000   0.000000
  85 O       9.556002  -4.772548  -1.073421    0.000000   0.000000   0.000000
  86 O       2.750144  -9.784553   7.391712    0.000000   0.000000   0.000000
  87 H      -7.145418   3.257464  -6.275581    0.000000   0.000000   0.000000
  88 O      -4.249062   1.587801  -7.838517    0.000000   0.000000   0.000000
  89 O       6.627894   3.218163  -6.659847    0.000000   0.000000   0.000000
  90 H       1.326070  -3.870265   6.580918    0.000000   0.000000   0.000000
  91 O       0.268063  -9.173290  -7.078234    0.000000   0.000000   0.000000
  92 O     -10.953780   8.769372  -4.855288    0.000000   0.000000   0.000000
  93 O      -1.209040   9.195537 -10.170078    0.000000   0.000000   0.000000
  94 O      -8.642774 -11.537201  -2.924094    0.000000   0.000000   0.000000
  95 O       6.862000  -8.701740   0.629540    0.000000   0.000000   0.000000
  96 H       1.041085   3.272022  -7.637769    0.000000   0.000000   0.000000
  97 O     -10.097693   5.856212  -0.708794    0.000000   0.000000   0.000000
  98 O      -2.680891  -5.367664   2.000133    0.000000   0.000000   0.000000
  99 H       2.602818   3.952214   4.107216    0.000000   0.000000   0.000000
 100 H      -4.280549  -9.212353 -12.092448    0.000000   0.000000   0.000000
 101 O      11.359679  -4.930837   8.657928    0.000000   0.000000   0.000000
 102 H       3.256135  15.049491  -1.089645    0.000000   0.000000   0.000000
 103 O      -9.036419  -2.187204  -0.411588    0.000000   0.000000   0.000000
 104 O     -10.506023  -2.762642   4.506144    0.000000   0.000000   0.000000
 105 H     -12.924373  -2.962935  -5.792702    0.000000   0.000000   0.000000
 106 Si    -10.981785   4.854913   2.132003    0.000000   0.000000   0.000000
 107 O       0.009894   2.399498  -0.974890    0.000000   0.000000   0.000000
 108 O       0.849939  -2.434120  -0.271917    0.000000   0.000000   0.000000
 109 O      -6.386200  -2.082963  -4.858395    0.000000   0.000000   0.000000
 110 Si     -3.218535   9.158719  -2.313492    0.000000   0.000000   0.000000
 111 H       2.242289 -11.095454   6.238429    0.000000   0.000000   0.000000
 112 H       6.923311   4.836593  -7.458436    0.000000   0.000000   0.000000
 113 H       3.298299  -3.262895  -6.075289    0.000000   0.000000   0.000000
 114 Si      5.817608   9.911693  -6.299124    0.000000   0.000000   0.000000
 115 O      -1.972236   7.018594  -0.337386    0.000000   0.000000   0.000000
 116 O      -3.937919 -18.493701  -7.562117    0.000000   0.000000   0.000000
 117 O       3.874287   1.007017   5.205914    0.000000   0.000000   0.000000
 118 H       3.396369   7.696835   2.240607    0.000000   0.000000   0.000000
 119 O       8.768678   6.292660   0.190867    0.000000   0.000000   0.000000
 120 H     -11.476155  -3.689311   5.708829    0.000000   0.000000   0.000000
 121 H       0.422243 -14.896990   6.670276    0.000000   0.000000   0.000000
 122 Si     -8.735312  -3.435496  -3.263714    0.000000   0.000000   0.000000
 123 H      -3.780895  -6.728854   1.398189    0.000000   0.000000   0.000000
 124 H       0.469979  -4.210963  10.522032    0.000000   0.000000   0.000000
 125 O      -0.215348 -17.056272  -4.243536    0.000000   0.000000   0.000000
 126 Si      0.782188  -0.217131  -2.486418    0.000000   0.000000   0.000000
 127 O       3.584064   0.093213  -3.911288    0.000000   0.000000   0.000000
 128 O      -4.943546 -15.399852  -3.477546    0.000000   0.000000   0.000000
 129 O       2.295245 -17.185876   0.813551    0.000000   0.000000   0.000000
 130 Si      9.522024   3.252654   0.434367    0.000000   0.000000   0.000000
 131 H       2.616750  -0.338281   4.975205    0.000000   0.000000   0.000000
 132 O     -14.104382   4.784602   2.368567    0.000000   0.000000   0.000000
 133 O      -4.678487  -9.678270  -0.249940    0.000000   0.000000   0.000000
 134 O       0.813883 -14.485763   4.954665    0.000000   0.000000   0.000000
 135 O      12.600430   2.762723   0.232642    0.000000   0.000000   0.000000
 136 O      -2.445687 -13.526926  -7.347043    0.000000   0.000000   0.000000
 137 O       4.361370  -8.672689  12.167319    0.000000   0.000000   0.000000
 138 O       1.620183  -5.229727   9.553511    0.000000   0.000000   0.000000
 139 Si      3.126789  -8.165204  -6.206914    0.000000   0.000000   0.000000
 140 Si     -3.869549  -1.266333  -6.557924    0.000000   0.000000   0.000000
 141 H       1.055261 -17.330768  -2.974211    0.000000   0.000000   0.000000
 142 H       3.289010 -18.694143   0.776017    0.000000   0.000000   0.000000
 143 Si      9.540356  -7.058958   1.063597    0.000000   0.000000   0.000000
 144 Si      6.592691   0.888990  -4.579814    0.000000   0.000000   0.000000
 145 H       4.781536  -9.322698  13.794641    0.000000   0.000000   0.000000
 146 O       5.985402  13.033201  -6.456207    0.000000   0.000000   0.000000
 147 O      -3.143523   3.207824   2.941996    0.000000   0.000000   0.000000
 148 H       9.338863  -3.465732  -2.319513    0.000000   0.000000   0.000000
 149 O       8.391736   2.194372   3.163398    0.000000   0.000000   0.000000
 150 H      -3.299824   3.089696  -8.288715    0.000000   0.000000   0.000000
 151 H       2.758059  18.551309  -8.470087    0.000000   0.000000   0.000000
 152 H      -2.611122  18.240421   1.477523    0.000000   0.000000   0.000000
 153 H      -7.877626  13.098701   5.521157    0.000000   0.000000   0.000000
 154 Bi     -2.582123   1.405271   9.600185    0.000000   0.000000   0.000000


                                 NWChem DFT Module
                                 -----------------


                                   Bi@Quartz ecp



  Caching 1-el integrals 


         Total DFT energy =    -5018.372998639858
      One electron energy =   -55284.281573827204
           Coulomb energy =    26830.712927076704
    Exchange-Corr. energy =     -615.636596651217
 Nuclear repulsion energy =    24050.832244761859

    Dispersion correction =       -0.570110366281

 Numeric. integr. density =      795.001100618595

     Total iterative time =     78.9s




                         DFT ENERGY GRADIENTS

    atom               coordinates                        gradient
                 x          y          z           x          y          z
   1 O       7.511794   3.253009   8.107096   -0.000979  -0.004512  -0.005643
   2 H      -3.611695 -10.953315   0.548059    0.000000   0.000000   0.000000
   3 H       9.995762  18.188570  -4.877595    0.000000   0.000000   0.000000
   4 Si     -2.824713 -16.219753  -5.733618    0.000000   0.000000   0.000000
   5 Si      0.996854 -14.476442   1.806283    0.000000   0.000000   0.000000
   6 Si      3.807516  -7.546573   9.292100    0.000000   0.000000   0.000000
   7 H       2.990858  11.828996   1.518862    0.000000   0.000000   0.000000
   8 Si     -6.437628  -9.238318  -2.842924    0.000000   0.000000   0.000000
   9 Si      0.374974  -4.553213   1.981832    0.000000   0.000000   0.000000
  10 Si      6.981757   1.230063   5.797783    0.000000   0.000000   0.000000
  11 H      -4.048155   5.954060   4.982442    0.000000   0.000000   0.000000
  12 Si     -8.833612  -1.023421   2.510250    0.000000   0.000000   0.000000
  13 Si     -0.896163   4.523849   1.166465    0.000000   0.000000   0.000000
  14 Si      7.239015   9.006962  -0.267878    0.000000   0.000000   0.000000
  15 H      -3.111198 -14.791618  -0.707930    0.000000   0.000000   0.000000
  16 Si     -7.930815   8.278734   6.401022    0.000000   0.000000   0.000000
  17 Si     -1.439777  13.461582   1.562591    0.000000   0.000000   0.000000
  18 Si      5.590260  15.992525  -5.336269    0.000000   0.000000   0.000000
  19 O      -5.744265  -1.218174   3.229487    0.000000   0.000000   0.000000
  20 O       5.313298  -9.504821  -8.006619    0.000000   0.000000   0.000000
  21 O      12.042519  -8.919805   0.788290    0.000000   0.000000   0.000000
  22 O      -2.464665  11.882690   4.062409    0.000000   0.000000   0.000000
  23 O       1.605140   5.087654   3.016919    0.000000   0.000000   0.000000
  24 O      -3.317051  -3.522650  -8.648617    0.000000   0.000000   0.000000
  25 O       7.992575  -1.718065  -5.663168    0.000000   0.000000   0.000000
  26 O       4.168221  15.653930  -2.580000    0.000000   0.000000   0.000000
  27 O       8.943788  11.519318   0.463395    0.000000   0.000000   0.000000
  28 O      -8.064909   4.479422  -5.270596    0.000000   0.000000   0.000000
  29 O       0.091197   4.807433  -7.792656    0.000000   0.000000   0.000000
  30 H      -4.464194  -2.552858   3.104413    0.000000   0.000000   0.000000
  31 H      -9.177308   7.110500  11.032992    0.000000   0.000000   0.000000
  32 O       4.613094   8.889748   1.472642    0.000000   0.000000   0.000000
  33 O       1.158638  -3.380768   4.793673    0.000000   0.000000   0.000000
  34 O      -3.608032  -9.434717 -10.432474    0.000000   0.000000   0.000000
  35 O      -9.824129   1.936827   2.517332    0.000000   0.000000   0.000000
  36 Si     -8.897251   6.875177  -3.441398    0.000000   0.000000   0.000000
  37 Si     -0.012858   7.971731  -7.556586    0.000000   0.000000   0.000000
  38 O       3.515547  -9.014313  -3.193248    0.000000   0.000000   0.000000
  39 O       9.384558  -5.862438   3.973518    0.000000   0.000000   0.000000
  40 H       9.705066  13.112906   0.824879    0.000000   0.000000   0.000000
  41 H      -6.515531 -14.513177  -3.139396    0.000000   0.000000   0.000000
  42 Si     -2.556791 -10.385524  -7.632430    0.000000   0.000000   0.000000
  43 O      -9.726856   6.695149   4.342168    0.000000   0.000000   0.000000
  44 O      -2.675264  11.907117  -0.933466    0.000000   0.000000   0.000000
  45 O      -4.975002   7.330378   5.780089    0.000000   0.000000   0.000000
  46 Si      3.877441  -9.281811  -0.087227    0.000000   0.000000   0.000000
  47 O      -1.722318   8.779170  -5.056168    0.000000   0.000000   0.000000
  48 H      -3.162255  10.497225   5.039961    0.000000   0.000000   0.000000
  49 H       9.220162   8.266647  -9.410024    0.000000   0.000000   0.000000
  50 Si      8.831897  -4.678179   6.830921    0.000000   0.000000   0.000000
  51 O      -6.229321   8.440006  -2.759366    0.000000   0.000000   0.000000
  52 O       1.697633  13.145584   1.307783    0.000000   0.000000   0.000000
  53 O       2.761225 -12.048365   0.906606    0.000000   0.000000   0.000000
  54 O       6.477851   9.158019  -3.324118    0.000000   0.000000   0.000000
  55 O     -11.408130  -3.280263  -4.870939    0.000000   0.000000   0.000000
  56 O       8.408389  17.355133  -5.038640    0.000000   0.000000   0.000000
  57 O       6.395923  -6.222006   8.108166    0.000000   0.000000   0.000000
  58 H      -4.491123 -19.826920  -8.641631    0.000000   0.000000   0.000000
  59 O      -1.385780  -0.934256  -4.625819    0.000000   0.000000   0.000000
  60 H       7.752684   4.484624   9.411236    0.000000   0.000000   0.000000
  61 H      -4.228620   1.717419   3.228294    0.000000   0.000000   0.000000
  62 O      -8.127432  11.364491   5.948293    0.000000   0.000000   0.000000
  63 O       8.032130   1.812070  -1.952852    0.000000   0.000000   0.000000
  64 H     -12.111468   9.897200  -5.648936    0.000000   0.000000   0.000000
  65 O      -7.825101  -6.449727  -2.875287    0.000000   0.000000   0.000000
  66 O      -2.262267  16.475579   1.561481    0.000000   0.000000   0.000000
  67 H      -1.934781   9.958304 -11.632422    0.000000   0.000000   0.000000
  68 O       3.843853  17.641158  -7.359376    0.000000   0.000000   0.000000
  69 H      12.831592  -5.039399   9.690993    0.000000   0.000000   0.000000
  70 H      14.373758   2.452827   0.157075    0.000000   0.000000   0.000000
  71 H     -15.899266   4.828510   2.510754    0.000000   0.000000   0.000000
  72 H       6.523976 -10.363138  -9.028255    0.000000   0.000000   0.000000
  73 H      13.486365  -9.986897   0.645410    0.000000   0.000000   0.000000
  74 O      -4.569388  -9.549016  -5.345337    0.000000   0.000000   0.000000
  75 O       2.084902  -7.068912   1.254923    0.000000   0.000000   0.000000
  76 H      -3.014668  -5.027606  -9.607110    0.000000   0.000000   0.000000
  77 H       8.341821  -3.190776  -6.651609    0.000000   0.000000   0.000000
  78 O       7.865645   8.450891  -8.229601    0.000000   0.000000   0.000000
  79 O       2.939416   8.929680  -7.065525    0.000000   0.000000   0.000000
  80 O      -8.749278   7.516443   9.331244    0.000000   0.000000   0.000000
  81 O      -1.872686 -14.193667   0.542393    0.000000   0.000000   0.000000
  82 H     -10.347809 -12.139837  -2.922934    0.000000   0.000000   0.000000
  83 O       7.985534  -1.664879   6.502492    0.000000   0.000000   0.000000
  84 O       3.285367  -5.052276  -6.365321    0.000000   0.000000   0.000000
  85 O       9.556002  -4.772548  -1.073421    0.000000   0.000000   0.000000
  86 O       2.750144  -9.784553   7.391712    0.000000   0.000000   0.000000
  87 H      -7.145418   3.257464  -6.275581    0.000000   0.000000   0.000000
  88 O      -4.249062   1.587801  -7.838517    0.000000   0.000000   0.000000
  89 O       6.627894   3.218163  -6.659847    0.000000   0.000000   0.000000
  90 H       1.326070  -3.870265   6.580918    0.000000   0.000000   0.000000
  91 O       0.268063  -9.173290  -7.078234    0.000000   0.000000   0.000000
  92 O     -10.953780   8.769372  -4.855288    0.000000   0.000000   0.000000
  93 O      -1.209040   9.195537 -10.170078    0.000000   0.000000   0.000000
  94 O      -8.642774 -11.537201  -2.924094    0.000000   0.000000   0.000000
  95 O       6.862000  -8.701740   0.629540    0.000000   0.000000   0.000000
  96 H       1.041085   3.272022  -7.637769    0.000000   0.000000   0.000000
  97 O     -10.097693   5.856212  -0.708794    0.000000   0.000000   0.000000
  98 O      -2.680891  -5.367664   2.000133    0.000000   0.000000   0.000000
  99 H       2.602818   3.952214   4.107216    0.000000   0.000000   0.000000
 100 H      -4.280549  -9.212353 -12.092448    0.000000   0.000000   0.000000
 101 O      11.359679  -4.930837   8.657928    0.000000   0.000000   0.000000
 102 H       3.256135  15.049491  -1.089645    0.000000   0.000000   0.000000
 103 O      -9.036419  -2.187204  -0.411588    0.000000   0.000000   0.000000
 104 O     -10.506023  -2.762642   4.506144    0.000000   0.000000   0.000000
 105 H     -12.924373  -2.962935  -5.792702    0.000000   0.000000   0.000000
 106 Si    -10.981785   4.854913   2.132003    0.000000   0.000000   0.000000
 107 O       0.009894   2.399498  -0.974890    0.000000   0.000000   0.000000
 108 O       0.849939  -2.434120  -0.271917    0.000000   0.000000   0.000000
 109 O      -6.386200  -2.082963  -4.858395    0.000000   0.000000   0.000000
 110 Si     -3.218535   9.158719  -2.313492    0.000000   0.000000   0.000000
 111 H       2.242289 -11.095454   6.238429    0.000000   0.000000   0.000000
 112 H       6.923311   4.836593  -7.458436    0.000000   0.000000   0.000000
 113 H       3.298299  -3.262895  -6.075289    0.000000   0.000000   0.000000
 114 Si      5.817608   9.911693  -6.299124    0.000000   0.000000   0.000000
 115 O      -1.972236   7.018594  -0.337386    0.000000   0.000000   0.000000
 116 O      -3.937919 -18.493701  -7.562117    0.000000   0.000000   0.000000
 117 O       3.874287   1.007017   5.205914    0.000000   0.000000   0.000000
 118 H       3.396369   7.696835   2.240607    0.000000   0.000000   0.000000
 119 O       8.768678   6.292660   0.190867    0.000000   0.000000   0.000000
 120 H     -11.476155  -3.689311   5.708829    0.000000   0.000000   0.000000
 121 H       0.422243 -14.896990   6.670276    0.000000   0.000000   0.000000
 122 Si     -8.735312  -3.435496  -3.263714    0.000000   0.000000   0.000000
[...]
  70 H      14.373758   2.452827   0.157075    0.000000   0.000000   0.000000
  71 H     -15.899266   4.828510   2.510754    0.000000   0.000000   0.000000
  72 H       6.523976 -10.363138  -9.028255    0.000000   0.000000   0.000000
  73 H      13.486365  -9.986897   0.645410    0.000000   0.000000   0.000000
  74 O      -4.569388  -9.549016  -5.345337    0.000000   0.000000   0.000000
  75 O       2.084902  -7.068912   1.254923    0.000000   0.000000   0.000000
  76 H      -3.014668  -5.027606  -9.607110    0.000000   0.000000   0.000000
  77 H       8.341821  -3.190776  -6.651609    0.000000   0.000000   0.000000
  78 O       7.865645   8.450891  -8.229601    0.000000   0.000000   0.000000
  79 O       2.939416   8.929680  -7.065525    0.000000   0.000000   0.000000
  80 O      -8.749278   7.516443   9.331244    0.000000   0.000000   0.000000
  81 O      -1.872686 -14.193667   0.542393    0.000000   0.000000   0.000000
  82 H     -10.347809 -12.139837  -2.922934    0.000000   0.000000   0.000000
  83 O       7.985534  -1.664879   6.502492    0.000000   0.000000   0.000000
  84 O       3.285367  -5.052276  -6.365321    0.000000   0.000000   0.000000
  85 O       9.556002  -4.772548  -1.073421    0.000000   0.000000   0.000000
  86 O       2.750144  -9.784553   7.391712    0.000000   0.000000   0.000000
  87 H      -7.145418   3.257464  -6.275581    0.000000   0.000000   0.000000
  88 O      -4.249062   1.587801  -7.838517    0.000000   0.000000   0.000000
  89 O       6.627894   3.218163  -6.659847    0.000000   0.000000   0.000000
  90 H       1.326070  -3.870265   6.580918    0.000000   0.000000   0.000000
  91 O       0.268063  -9.173290  -7.078234    0.000000   0.000000   0.000000
  92 O     -10.953780   8.769372  -4.855288    0.000000   0.000000   0.000000
  93 O      -1.209040   9.195537 -10.170078    0.000000   0.000000   0.000000
  94 O      -8.642774 -11.537201  -2.924094    0.000000   0.000000   0.000000
  95 O       6.862000  -8.701740   0.629540    0.000000   0.000000   0.000000
  96 H       1.041085   3.272022  -7.637769    0.000000   0.000000   0.000000
  97 O     -10.097693   5.856212  -0.708794    0.000000   0.000000   0.000000
  98 O      -2.680891  -5.367664   2.000133    0.000000   0.000000   0.000000
  99 H       2.602818   3.952214   4.107216    0.000000   0.000000   0.000000
 100 H      -4.280549  -9.212353 -12.092448    0.000000   0.000000   0.000000
 101 O      11.359679  -4.930837   8.657928    0.000000   0.000000   0.000000
 102 H       3.256135  15.049491  -1.089645    0.000000   0.000000   0.000000
 103 O      -9.036419  -2.187204  -0.411588    0.000000   0.000000   0.000000
 104 O     -10.506023  -2.762642   4.506144    0.000000   0.000000   0.000000
 105 H     -12.924373  -2.962935  -5.792702    0.000000   0.000000   0.000000
 106 Si    -10.981785   4.854913   2.132003    0.000000   0.000000   0.000000
 107 O       0.009894   2.399498  -0.974890    0.000000   0.000000   0.000000
 108 O       0.849939  -2.434120  -0.271917    0.000000   0.000000   0.000000
 109 O      -6.386200  -2.082963  -4.858395    0.000000   0.000000   0.000000
 110 Si     -3.218535   9.158719  -2.313492    0.000000   0.000000   0.000000
 111 H       2.242289 -11.095454   6.238429    0.000000   0.000000   0.000000
 112 H       6.923311   4.836593  -7.458436    0.000000   0.000000   0.000000
 113 H       3.298299  -3.262895  -6.075289    0.000000   0.000000   0.000000
 114 Si      5.817608   9.911693  -6.299124    0.000000   0.000000   0.000000
 115 O      -1.972236   7.018594  -0.337386    0.000000   0.000000   0.000000
 116 O      -3.937919 -18.493701  -7.562117    0.000000   0.000000   0.000000
 117 O       3.874287   1.007017   5.205914    0.000000   0.000000   0.000000
 118 H       3.396369   7.696835   2.240607    0.000000   0.000000   0.000000
 119 O       8.768678   6.292660   0.190867    0.000000   0.000000   0.000000
 120 H     -11.476155  -3.689311   5.708829    0.000000   0.000000   0.000000
 121 H       0.422243 -14.896990   6.670276    0.000000   0.000000   0.000000
 122 Si     -8.735312  -3.435496  -3.263714    0.000000   0.000000   0.000000
 123 H      -3.780895  -6.728854   1.398189    0.000000   0.000000   0.000000
 124 H       0.469979  -4.210963  10.522032    0.000000   0.000000   0.000000
 125 O      -0.215348 -17.056272  -4.243536    0.000000   0.000000   0.000000
 126 Si      0.782188  -0.217131  -2.486418    0.000000   0.000000   0.000000
 127 O       3.584064   0.093213  -3.911288    0.000000   0.000000   0.000000
 128 O      -4.943546 -15.399852  -3.477546    0.000000   0.000000   0.000000
 129 O       2.295245 -17.185876   0.813551    0.000000   0.000000   0.000000
 130 Si      9.522024   3.252654   0.434367    0.000000   0.000000   0.000000
 131 H       2.616750  -0.338281   4.975205    0.000000   0.000000   0.000000
 132 O     -14.104382   4.784602   2.368567    0.000000   0.000000   0.000000
 133 O      -4.678487  -9.678270  -0.249940    0.000000   0.000000   0.000000
 134 O       0.813883 -14.485763   4.954665    0.000000   0.000000   0.000000
 135 O      12.600430   2.762723   0.232642    0.000000   0.000000   0.000000
 136 O      -2.445687 -13.526926  -7.347043    0.000000   0.000000   0.000000
 137 O       4.361370  -8.672689  12.167319    0.000000   0.000000   0.000000
 138 O       1.620183  -5.229727   9.553511    0.000000   0.000000   0.000000
 139 Si      3.126789  -8.165204  -6.206914    0.000000   0.000000   0.000000
 140 Si     -3.869549  -1.266333  -6.557924    0.000000   0.000000   0.000000
 141 H       1.055261 -17.330768  -2.974211    0.000000   0.000000   0.000000
 142 H       3.289010 -18.694143   0.776017    0.000000   0.000000   0.000000
 143 Si      9.540356  -7.058958   1.063597    0.000000   0.000000   0.000000
 144 Si      6.592691   0.888990  -4.579814    0.000000   0.000000   0.000000
 145 H       4.781536  -9.322698  13.794641    0.000000   0.000000   0.000000
 146 O       5.985402  13.033201  -6.456207    0.000000   0.000000   0.000000
 147 O      -3.143523   3.207824   2.941996    0.000000   0.000000   0.000000
 148 H       9.338863  -3.465732  -2.319513    0.000000   0.000000   0.000000
 149 O       8.391736   2.194372   3.163398    0.000000   0.000000   0.000000
 150 H      -3.299824   3.089696  -8.288715    0.000000   0.000000   0.000000
 151 H       2.758059  18.551309  -8.470087    0.000000   0.000000   0.000000
 152 H      -2.611122  18.240421   1.477523    0.000000   0.000000   0.000000
 153 H      -7.877626  13.098701   5.521157    0.000000   0.000000   0.000000
 154 Bi     -2.582123   1.405271   9.600185    0.000000   0.000000   0.000000


                                 NWChem DFT Module
                                 -----------------


                                   Bi@Quartz ecp



  Caching 1-el integrals 


         Total DFT energy =    -5018.373015790291
      One electron energy =   -55283.817207975975
           Coulomb energy =    26830.474483915801
    Exchange-Corr. energy =     -615.635287073842
 Nuclear repulsion energy =    24050.604995343725

    Dispersion correction =       -0.570102021705

 Numeric. integr. density =      795.001099961790

     Total iterative time =     96.0s




                         DFT ENERGY GRADIENTS

    atom               coordinates                        gradient
                 x          y          z           x          y          z
   1 O       7.511794   3.253009   8.117096   -0.000009  -0.000005  -0.000009
   2 H      -3.611695 -10.963315   0.548059    0.001830  -0.002478   0.001430
   3 H       9.995762  18.188570  -4.877595    0.000000   0.000000   0.000000
   4 Si     -2.824713 -16.219753  -5.733618    0.000000   0.000000   0.000000
   5 Si      0.996854 -14.476442   1.806283    0.000000   0.000000   0.000000
   6 Si      3.807516  -7.546573   9.292100    0.000000   0.000000   0.000000
   7 H       2.990858  11.828996   1.518862    0.000000   0.000000   0.000000
   8 Si     -6.437628  -9.238318  -2.842924    0.000000   0.000000   0.000000
   9 Si      0.374974  -4.553213   1.981832    0.000000   0.000000   0.000000
  10 Si      6.981757   1.230063   5.797783    0.000000   0.000000   0.000000
  11 H      -4.048155   5.954060   4.982442    0.000000   0.000000   0.000000
  12 Si     -8.833612  -1.023421   2.510250    0.000000   0.000000   0.000000
  13 Si     -0.896163   4.523849   1.166465    0.000000   0.000000   0.000000
  14 Si      7.239015   9.006962  -0.267878    0.000000   0.000000   0.000000
  15 H      -3.111198 -14.791618  -0.707930    0.000000   0.000000   0.000000
  16 Si     -7.930815   8.278734   6.401022    0.000000   0.000000   0.000000
  17 Si     -1.439777  13.461582   1.562591    0.000000   0.000000   0.000000
  18 Si      5.590260  15.992525  -5.336269    0.000000   0.000000   0.000000
  19 O      -5.744265  -1.218174   3.229487    0.000000   0.000000   0.000000
  20 O       5.313298  -9.504821  -8.006619    0.000000   0.000000   0.000000
  21 O      12.042519  -8.919805   0.788290    0.000000   0.000000   0.000000
  22 O      -2.464665  11.882690   4.062409    0.000000   0.000000   0.000000
  23 O       1.605140   5.087654   3.016919    0.000000   0.000000   0.000000
  24 O      -3.317051  -3.522650  -8.648617    0.000000   0.000000   0.000000
  25 O       7.992575  -1.718065  -5.663168    0.000000   0.000000   0.000000
  26 O       4.168221  15.653930  -2.580000    0.000000   0.000000   0.000000
  27 O       8.943788  11.519318   0.463395    0.000000   0.000000   0.000000
  28 O      -8.064909   4.479422  -5.270596    0.000000   0.000000   0.000000
  29 O       0.091197   4.807433  -7.792656    0.000000   0.000000   0.000000
  30 H      -4.464194  -2.552858   3.104413    0.000000   0.000000   0.000000
  31 H      -9.177308   7.110500  11.032992    0.000000   0.000000   0.000000
  32 O       4.613094   8.889748   1.472642    0.000000   0.000000   0.000000
  33 O       1.158638  -3.380768   4.793673    0.000000   0.000000   0.000000
  34 O      -3.608032  -9.434717 -10.432474    0.000000   0.000000   0.000000
  35 O      -9.824129   1.936827   2.517332    0.000000   0.000000   0.000000
  36 Si     -8.897251   6.875177  -3.441398    0.000000   0.000000   0.000000
  37 Si     -0.012858   7.971731  -7.556586    0.000000   0.000000   0.000000
  38 O       3.515547  -9.014313  -3.193248    0.000000   0.000000   0.000000
  39 O       9.384558  -5.862438   3.973518    0.000000   0.000000   0.000000
  40 H       9.705066  13.112906   0.824879    0.000000   0.000000   0.000000
  41 H      -6.515531 -14.513177  -3.139396    0.000000   0.000000   0.000000
  42 Si     -2.556791 -10.385524  -7.632430    0.000000   0.000000   0.000000
  43 O      -9.726856   6.695149   4.342168    0.000000   0.000000   0.000000
  44 O      -2.675264  11.907117  -0.933466    0.000000   0.000000   0.000000
  45 O      -4.975002   7.330378   5.780089    0.000000   0.000000   0.000000
  46 Si      3.877441  -9.281811  -0.087227    0.000000   0.000000   0.000000
  47 O      -1.722318   8.779170  -5.056168    0.000000   0.000000   0.000000
  48 H      -3.162255  10.497225   5.039961    0.000000   0.000000   0.000000
  49 H       9.220162   8.266647  -9.410024    0.000000   0.000000   0.000000
  50 Si      8.831897  -4.678179   6.830921    0.000000   0.000000   0.000000
  51 O      -6.229321   8.440006  -2.759366    0.000000   0.000000   0.000000
  52 O       1.697633  13.145584   1.307783    0.000000   0.000000   0.000000
  53 O       2.761225 -12.048365   0.906606    0.000000   0.000000   0.000000
  54 O       6.477851   9.158019  -3.324118    0.000000   0.000000   0.000000
  55 O     -11.408130  -3.280263  -4.870939    0.000000   0.000000   0.000000
  56 O       8.408389  17.355133  -5.038640    0.000000   0.000000   0.000000
  57 O       6.395923  -6.222006   8.108166    0.000000   0.000000   0.000000
  58 H      -4.491123 -19.826920  -8.641631    0.000000   0.000000   0.000000
  59 O      -1.385780  -0.934256  -4.625819    0.000000   0.000000   0.000000
  60 H       7.752684   4.484624   9.411236    0.000000   0.000000   0.000000
  61 H      -4.228620   1.717419   3.228294    0.000000   0.000000   0.000000
  62 O      -8.127432  11.364491   5.948293    0.000000   0.000000   0.000000
  63 O       8.032130   1.812070  -1.952852    0.000000   0.000000   0.000000
  64 H     -12.111468   9.897200  -5.648936    0.000000   0.000000   0.000000
  65 O      -7.825101  -6.449727  -2.875287    0.000000   0.000000   0.000000
  66 O      -2.262267  16.475579   1.561481    0.000000   0.000000   0.000000
  67 H      -1.934781   9.958304 -11.632422    0.000000   0.000000   0.000000
  68 O       3.843853  17.641158  -7.359376    0.000000   0.000000   0.000000
  69 H      12.831592  -5.039399   9.690993    0.000000   0.000000   0.000000
  70 H      14.373758   2.452827   0.157075    0.000000   0.000000   0.000000
  71 H     -15.899266   4.828510   2.510754    0.000000   0.000000   0.000000
  72 H       6.523976 -10.363138  -9.028255    0.000000   0.000000   0.000000
  73 H      13.486365  -9.986897   0.645410    0.000000   0.000000   0.000000
  74 O      -4.569388  -9.549016  -5.345337    0.000000   0.000000   0.000000
  75 O       2.084902  -7.068912   1.254923    0.000000   0.000000   0.000000
  76 H      -3.014668  -5.027606  -9.607110    0.000000   0.000000   0.000000
  77 H       8.341821  -3.190776  -6.651609    0.000000   0.000000   0.000000
  78 O       7.865645   8.450891  -8.229601    0.000000   0.000000   0.000000
  79 O       2.939416   8.929680  -7.065525    0.000000   0.000000   0.000000
  80 O      -8.749278   7.516443   9.331244    0.000000   0.000000   0.000000
  81 O      -1.872686 -14.193667   0.542393    0.000000   0.000000   0.000000
  82 H     -10.347809 -12.139837  -2.922934    0.000000   0.000000   0.000000
  83 O       7.985534  -1.664879   6.502492    0.000000   0.000000   0.000000
  84 O       3.285367  -5.052276  -6.365321    0.000000   0.000000   0.000000
  85 O       9.556002  -4.772548  -1.073421    0.000000   0.000000   0.000000
  86 O       2.750144  -9.784553   7.391712    0.000000   0.000000   0.000000
  87 H      -7.145418   3.257464  -6.275581    0.000000   0.000000   0.000000
  88 O      -4.249062   1.587801  -7.838517    0.000000   0.000000   0.000000
  89 O       6.627894   3.218163  -6.659847    0.000000   0.000000   0.000000
  90 H       1.326070  -3.870265   6.580918    0.000000   0.000000   0.000000
  91 O       0.268063  -9.173290  -7.078234    0.000000   0.000000   0.000000
  92 O     -10.953780   8.769372  -4.855288    0.000000   0.000000   0.000000
  93 O      -1.209040   9.195537 -10.170078    0.000000   0.000000   0.000000
  94 O      -8.642774 -11.537201  -2.924094    0.000000   0.000000   0.000000
  95 O       6.862000  -8.701740   0.629540    0.000000   0.000000   0.000000
  96 H       1.041085   3.272022  -7.637769    0.000000   0.000000   0.000000
  97 O     -10.097693   5.856212  -0.708794    0.000000   0.000000   0.000000
  98 O      -2.680891  -5.367664   2.000133    0.000000   0.000000   0.000000
  99 H       2.602818   3.952214   4.107216    0.000000   0.000000   0.000000
 100 H      -4.280549  -9.212353 -12.092448    0.000000   0.000000   0.000000
 101 O      11.359679  -4.930837   8.657928    0.000000   0.000000   0.000000
 102 H       3.256135  15.049491  -1.089645    0.000000   0.000000   0.000000
 103 O      -9.036419  -2.187204  -0.411588    0.000000   0.000000   0.000000
 104 O     -10.506023  -2.762642   4.506144    0.000000   0.000000   0.000000
 105 H     -12.924373  -2.962935  -5.792702    0.000000   0.000000   0.000000
 106 Si    -10.981785   4.854913   2.132003    0.000000   0.000000   0.000000
 107 O       0.009894   2.399498  -0.974890    0.000000   0.000000   0.000000
 108 O       0.849939  -2.434120  -0.271917    0.000000   0.000000   0.000000
 109 O      -6.386200  -2.082963  -4.858395    0.000000   0.000000   0.000000
 110 Si     -3.218535   9.158719  -2.313492    0.000000   0.000000   0.000000
 111 H       2.242289 -11.095454   6.238429    0.000000   0.000000   0.000000
 112 H       6.923311   4.836593  -7.458436    0.000000   0.000000   0.000000
 113 H       3.298299  -3.262895  -6.075289    0.000000   0.000000   0.000000
 114 Si      5.817608   9.911693  -6.299124    0.000000   0.000000   0.000000
 115 O      -1.972236   7.018594  -0.337386    0.000000   0.000000   0.000000
 116 O      -3.937919 -18.493701  -7.562117    0.000000   0.000000   0.000000
 117 O       3.874287   1.007017   5.205914    0.000000   0.000000   0.000000
 118 H       3.396369   7.696835   2.240607    0.000000   0.000000   0.000000
 119 O       8.768678   6.292660   0.190867    0.000000   0.000000   0.000000
 120 H     -11.476155  -3.689311   5.708829    0.000000   0.000000   0.000000
 121 H       0.422243 -14.896990   6.670276    0.000000   0.000000   0.000000
 122 Si     -8.735312  -3.435496  -3.263714    0.000000   0.000000   0.000000
 123 H      -3.780895  -6.728854   1.398189    0.000000   0.000000   0.000000
 124 H       0.469979  -4.210963  10.522032    0.000000   0.000000   0.000000
 125 O      -0.215348 -17.056272  -4.243536    0.000000   0.000000   0.000000
 126 Si      0.782188  -0.217131  -2.486418    0.000000   0.000000   0.000000
 127 O       3.584064   0.093213  -3.911288    0.000000   0.000000   0.000000
 128 O      -4.943546 -15.399852  -3.477546    0.000000   0.000000   0.000000
 129 O       2.295245 -17.185876   0.813551    0.000000   0.000000   0.000000
 130 Si      9.522024   3.252654   0.434367    0.000000   0.000000   0.000000
 131 H       2.616750  -0.338281   4.975205    0.000000   0.000000   0.000000
 132 O     -14.104382   4.784602   2.368567    0.000000   0.000000   0.000000
 133 O      -4.678487  -9.678270  -0.249940    0.000000   0.000000   0.000000
 134 O       0.813883 -14.485763   4.954665    0.000000   0.000000   0.000000
 135 O      12.600430   2.762723   0.232642    0.000000   0.000000   0.000000
 136 O      -2.445687 -13.526926  -7.347043    0.000000   0.000000   0.000000
 137 O       4.361370  -8.672689  12.167319    0.000000   0.000000   0.000000
 138 O       1.620183  -5.229727   9.553511    0.000000   0.000000   0.000000
 139 Si      3.126789  -8.165204  -6.206914    0.000000   0.000000   0.000000
 140 Si     -3.869549  -1.266333  -6.557924    0.000000   0.000000   0.000000
 141 H       1.055261 -17.330768  -2.974211    0.000000   0.000000   0.000000
 142 H       3.289010 -18.694143   0.776017    0.000000   0.000000   0.000000
 143 Si      9.540356  -7.058958   1.063597    0.000000   0.000000   0.000000
 144 Si      6.592691   0.888990  -4.579814    0.000000   0.000000   0.000000
 145 H       4.781536  -9.322698  13.794641    0.000000   0.000000   0.000000
 146 O       5.985402  13.033201  -6.456207    0.000000   0.000000   0.000000
 147 O      -3.143523   3.207824   2.941996    0.000000   0.000000   0.000000
 148 H       9.338863  -3.465732  -2.319513    0.000000   0.000000   0.000000
 149 O       8.391736   2.194372   3.163398    0.000000   0.000000   0.000000
 150 H      -3.299824   3.089696  -8.288715    0.000000   0.000000   0.000000
 151 H       2.758059  18.551309  -8.470087    0.000000   0.000000   0.000000
 152 H      -2.611122  18.240421   1.477523    0.000000   0.000000   0.000000
 153 H      -7.877626  13.098701   5.521157    0.000000   0.000000   0.000000
 154 Bi     -2.582123   1.405271   9.600185    0.000000   0.000000   0.000000


                                 NWChem DFT Module
                                 -----------------


                                   Bi@Quartz ecp



  Caching 1-el integrals 


         Total DFT energy =    -5018.373022137359
      One electron energy =   -55283.829575577372
           Coulomb energy =    26830.478770529593
    Exchange-Corr. energy =     -615.635832491621
 Nuclear repulsion energy =    24050.613615402042

    Dispersion correction =       -0.570097948961

 Numeric. integr. density =      795.001099451774

     Total iterative time =     90.2s


