 argument  1 = /lustre/ukt/milias/work/projects/open-collection/theoretical_chemistry/projects/adsorbate_on_surface/on_quartz/quartz/nwchem/Quartz-G_molecular_slab_153atoms/ecp/Bi_on_quartz/crenbl_ecp/frequencies/BiQ.ecp_revpbe-d3bj_rodft_freq.nw



============================== echo of input deck ==============================
echo

start Bi_on_Q

memory total 180 gb

permanent_dir /lustre/ukt/milias/scratch/Bi_on_Q_crenbl_ecp

print low

title "Bi@Quartz ecp"
charge 0

geometry units angstroms print xyz autosym
  load format xyz BiQgeom.xyz
end

basis
 * library crenbl_ecp
end

ecp
  Si library crenbl_ecp
  Bi library crenbl_ecp
end

dft
  rodft
  mult 4
  xc revpbe cpbe96
  disp vdw 4
  maxiter 100
end

task dft energy
task dft frequencies

================================================================================


                                         
                                         


             Northwest Computational Chemistry Package (NWChem) 7.2.0
             --------------------------------------------------------


                    Environmental Molecular Sciences Laboratory
                       Pacific Northwest National Laboratory
                                Richland, WA 99352

                              Copyright (c) 1994-2022
                       Pacific Northwest National Laboratory
                            Battelle Memorial Institute

             NWChem is an open-source computational chemistry package
                        distributed under the terms of the
                      Educational Community License (ECL) 2.0
             A copy of the license is included with this distribution
                              in the LICENSE.TXT file

                                  ACKNOWLEDGMENT
                                  --------------

            This software and its documentation were developed at the
            EMSL at Pacific Northwest National Laboratory, a multiprogram
            national laboratory, operated for the U.S. Department of Energy
            by Battelle under Contract Number DE-AC05-76RL01830. Support
            for this work was provided by the Department of Energy Office
            of Biological and Environmental Research, Office of Basic
            Energy Sciences, and the Office of Advanced Scientific Computing.


           Job information
           ---------------

    hostname        = lxbk0877
    program         = /lustre/ukt/milias/work/software/nwchem/nwchem-7.2.0_gnu_openmpi_openblas/bin/LINUX64/nwchem
    date            = Fri Aug 18 19:30:58 2023

    compiled        = Sun_Jul_02_11:55:06_2023
    source          = /lustre/ukt/milias/work/software/nwchem/nwchem-7.2.0_gnu_openmpi_openblas
    nwchem branch   = 7.2.0
    nwchem revision = v7.2.0-beta1-192-gd0d141fdfb
    ga revision     = 5.8.0
    use scalapack   = F
    input           = /lustre/ukt/milias/work/projects/open-collection/theoretical_chemistry/projects/adsorbate_on_surface/on_quartz/quartz/nwchem/Quartz-G_molecular_slab_153atoms/ecp/Bi_on_quartz/crenbl_ecp/frequencies/BiQ.ecp_revpbe-d3bj_rodft_freq.nw
    prefix          = Bi_on_Q.
    data base       = /lustre/ukt/milias/scratch/Bi_on_Q_crenbl_ecp/Bi_on_Q.db
    status          = startup
    nproc           =      140
    time left       =     -1s



           Memory information
           ------------------

    heap     = 6039797754 doubles =  46080.0 Mbytes
    stack    = 6039797759 doubles =  46080.0 Mbytes
    global   = ********** doubles =  92160.0 Mbytes (distinct from heap & stack)
    total    = ********** doubles = 184320.0 Mbytes
    verify   = yes
    hardfail = no 


           Directory information
           ---------------------

  0 permanent = /lustre/ukt/milias/scratch/Bi_on_Q_crenbl_ecp
  0 scratch   = .




                                NWChem Input Module
                                -------------------


                                   Bi@Quartz ecp
                                   -------------

 Scaling coordinates for geometry "geometry" by  1.889725989
 (inverse scale =  0.529177249)


          ------
          auto-z
          ------
  autoz: The atoms group into disjoint clusters
 cluster   1:    1    2    3    4    5    6    7    8    9   10   11
                12   13   14   15   16   17   18   19   20   21   22
                23   24   25   26   27   28   29   30   31   32   33
                34   35   36   37   38   39   40   41   42   43   44
                45   46   47   48   49   50   51   52   53   54   55
                56   57   58   59   60   61   62   63   64   65   66
                67   68   69   70   71   72   73   74   75   76   77
                78   79   80   81   82   83   84   85   86   87   88
                89   90   91   92   93   94   95   96   97   98   99
               100  101  102  103  104  105  106  107  108  109  110
               111  112  113  114  115  116  117  118  119  120  121
               122  123  124  125  126  127  128  129  130  131  132
               133  134  135  136  137  138  139  140  141  142  143
               144  145  146  147  148  149  150  151  152  153
 cluster   2:  154
 Connecting clusters   1   2 via atoms  124  154 r = 3.42
  autoz: regenerating connections with new bonds
  no constraints, skipping    0.0000000000000000     
  no constraints, skipping    0.0000000000000000     


                             Geometry "geometry" -> ""
                             -------------------------

 Output coordinates in angstroms (scale by  1.889725989 to convert to a.u.)

  No.       Tag          Charge          X              Y              Z
 ---- ---------------- ---------- -------------- -------------- --------------
    1 O                    8.0000     3.97507065     1.72141811     4.29538269
    2 H                    1.0000    -1.91122686    -5.79624534     0.29002018
    3 H                    1.0000     5.28952983     9.62497731    -2.58111219
    4 Si                  14.0000    -1.49477362    -8.58312447    -3.03410023
    5 Si                  14.0000     0.52751234    -7.66060371     0.95584390
    6 Si                  14.0000     2.01485092    -3.99347462     4.91716798
    7 H                    1.0000     1.58269404     6.25963548     0.80374698
    8 Si                  14.0000    -3.40664635    -4.88870755    -1.50441091
    9 Si                  14.0000     0.19842768    -2.40945684     1.04874020
   10 Si                  14.0000     3.69458716     0.65092109     3.06805468
   11 H                    1.0000    -2.14219135     3.15075303     2.63659483
   12 Si                  14.0000    -4.67454627    -0.54157112     1.32836693
   13 Si                  14.0000    -0.47422891     2.39391801     0.61726651
   14 Si                  14.0000     3.83072181     4.76627916    -0.14175496
   15 H                    1.0000    -1.64637535    -7.82738773    -0.37462053
   16 Si                  14.0000    -4.19680701     4.38091791     3.38727528
   17 Si                  14.0000    -0.76189716     7.12356269     0.82688762
   18 Si                  14.0000     2.95823834     8.46288030    -2.82383192
   19 O                    8.0000    -3.03973410    -0.64463020     1.70897115
   20 O                    8.0000     2.81167629    -5.02973492    -4.23692040
   21 O                    8.0000     6.37262730    -4.72015769     0.41714498
   22 O                    8.0000    -1.30424469     6.28804920     2.14973465
   23 O                    8.0000     0.84940355     2.69227053     1.59648464
   24 O                    8.0000    -1.75530778    -1.86410641    -4.57665141
   25 O                    8.0000     4.22948891    -0.90916075    -2.99681983
   26 O                    8.0000     2.20572757     8.28370380    -1.36527716
   27 O                    8.0000     4.73284897     6.09576118     0.24521828
   28 O                    8.0000    -4.26776612     2.37040799    -2.78907929
   29 O                    8.0000     0.04825915     2.54398394    -4.12369629
   30 H                    1.0000    -2.36234985    -1.35091459     1.64278490
   31 H                    1.0000    -4.85642260     3.76271504     5.83840812
   32 O                    8.0000     2.44114431     4.70425244     0.77928873
   33 O                    8.0000     0.61312500    -1.78902534     2.53670277
   34 O                    8.0000    -1.90928859    -4.99263779    -5.52062812
   35 O                    8.0000    -5.19870582     1.02492499     1.33211479
   36 Si                  14.0000    -4.70822280     3.63818748    -1.82110931
   37 Si                  14.0000    -0.00680406     4.21845860    -3.99877359
   38 O                    8.0000     1.86034756    -4.77016926    -1.68979393
   39 O                    8.0000     4.96609452    -3.10226886     2.10269529
   40 H                    1.0000     5.13569995     6.93905175     0.43650719
   41 H                    1.0000    -3.44787099    -7.68004324    -1.66129674
   42 Si                  14.0000    -1.35299544    -5.49578277    -4.03890833
   43 O                    8.0000    -5.14723077     3.54292072     2.29777638
   44 O                    8.0000    -1.41568890     6.30097552    -0.49396911
   45 O                    8.0000    -2.63265795     3.87906945     3.05869174
   46 Si                  14.0000     2.05185379    -4.91172337    -0.04615840
   47 O                    8.0000    -0.91141169     4.64573680    -2.67560902
   48 H                    1.0000    -1.67339338     5.55489250     2.66703289
   49 H                    1.0000     4.87910004     4.37452152    -4.97957042
   50 Si                  14.0000     4.67363875    -2.47558600     3.61476797
   51 O                    8.0000    -3.29641491     4.46625891    -1.46019369
   52 O                    8.0000     0.89834901     6.95634384     0.69204923
   53 O                    8.0000     1.46117756    -6.37572070     0.47975521
   54 O                    8.0000     3.42793158     4.84621540    -1.75904744
   55 O                    8.0000    -6.03692279    -1.73584049    -2.57758986
   56 O                    8.0000     4.44952831     9.18394148    -2.66633349
   57 O                    8.0000     3.38457677    -3.29254420     4.29065692
   58 H                    1.0000    -2.37659996   -10.49195484    -4.57295433
   59 O                    8.0000    -0.73332316    -0.49438708    -2.44787835
   60 H                    1.0000     4.10254373     2.37316097     4.98021207
   61 H                    1.0000    -2.23768933     0.90881922     1.70833995
   62 O                    8.0000    -4.30085196     6.01382996     3.14770134
   63 O                    8.0000     4.25042057     0.95890600    -1.03340475
   64 H                    1.0000    -6.40911333     5.23737306    -2.98928861
   65 O                    8.0000    -4.14086545    -3.41304861    -1.52153625
   66 O                    8.0000    -1.19714036     8.71850176     0.82630026
   67 H                    1.0000    -1.02384196     5.26970774    -6.15561332
   68 O                    8.0000     2.03407933     9.33529967    -3.89441454
   69 H                    1.0000     6.79018676    -2.66673540     5.12825276
   70 H                    1.0000     7.60626580     1.29798011     0.08312060
   71 H                    1.0000    -8.41353005     2.55513773     1.32863364
   72 H                    1.0000     3.45233986    -5.48393685    -4.77754695
   73 H                    1.0000     7.13667739    -5.28483881     0.34153640
   74 O                    8.0000    -2.41801630    -5.05312178    -2.82863054
   75 O                    8.0000     1.10328273    -3.74070750     0.66407684
   76 H                    1.0000    -1.59529391    -2.66049477    -5.08386393
   77 H                    1.0000     4.41430209    -1.68848605    -3.51987993
   78 O                    8.0000     4.16232049     4.47201912    -4.35491767
   79 O                    8.0000     1.55547184     4.72538352    -3.73891528
   80 O                    8.0000    -4.62991869     3.97753079     4.93788183
   81 O                    8.0000    -0.99098267    -7.51096591     0.28702215
   82 H                    1.0000    -5.47582495    -6.42412570    -1.54675018
   83 O                    8.0000     4.22576274    -0.88101626     3.44097082
   84 O                    8.0000     1.73854125    -2.67354961    -3.36838280
   85 O                    8.0000     5.05681892    -2.52552361    -0.56802981
   86 O                    8.0000     1.45531376    -5.17776292     3.91152560
   87 H                    1.0000    -3.78119277     1.72377604    -3.32089490
   88 O                    8.0000    -2.24850707     0.84022819    -4.14796505
   89 O                    8.0000     3.50733097     1.70297851    -3.52423969
   90 H                    1.0000     0.70172585    -2.04805629     3.48247214
   91 O                    8.0000     0.14185291    -4.85429663    -3.74564064
   92 O                    8.0000    -5.79649091     4.64055230    -2.56930780
   93 O                    8.0000    -0.63979621     4.86606899    -5.38177382
   94 O                    8.0000    -4.57355945    -6.10522406    -1.54736382
   95 O                    8.0000     3.63121409    -4.60476283     0.33313849
   96 H                    1.0000     0.55091849     1.73147935    -4.04173337
   97 O                    8.0000    -5.34346943     3.09897393    -0.37507769
   98 O                    8.0000    -1.41866645    -2.84044547     1.05842482
   99 H                    1.0000     1.37735182     2.09142186     2.17344534
  100 H                    1.0000    -2.26516938    -4.87496748    -6.39904815
  101 O                    8.0000     6.01128353    -2.60928684     4.58157828
  102 H                    1.0000     1.72307272     7.96384799    -0.57661519
  103 O                    8.0000    -4.78186747    -1.15741871    -0.21780313
  104 O                    8.0000    -5.55954842    -1.46192712     2.38454868
  105 H                    1.0000    -6.83928412    -1.56791797    -3.06536633
  106 Si                  14.0000    -5.81131073     2.56910945     1.12820737
  107 O                    8.0000     0.00523583     1.26975998    -0.51588967
  108 O                    8.0000     0.44976815    -1.28808107    -0.14389228
  109 O                    8.0000    -3.37943190    -1.10225653    -2.57095185
  110 Si                  14.0000    -1.70317541     4.84658596    -1.22424726
  111 H                    1.0000     1.18656843    -5.87146159     3.30123477
  112 H                    1.0000     3.66365885     2.55941519    -3.94683447
  113 H                    1.0000     1.74538499    -1.72664965    -3.21490488
  114 Si                  14.0000     3.07854555     5.24504234    -3.33335298
  115 O                    8.0000    -1.04366226     3.71408038    -0.17853692
  116 O                    8.0000    -2.08385714    -9.78644575    -4.00170051
  117 O                    8.0000     2.05018433     0.53289042     2.75485116
  118 H                    1.0000     1.79728147     4.07298994     1.18567824
  119 O                    8.0000     4.64018499     3.32993277     0.10100270
  120 H                    1.0000    -6.07291997    -1.95229922     3.02098265
  121 H                    1.0000     0.22344131    -7.88314825     3.52975856
  122 Si                  14.0000    -4.62252844    -1.81798633    -1.72708308
  123 H                    1.0000    -2.00076357    -3.56075638     0.73988962
  124 H                    1.0000     0.24870236    -2.22834605     5.56802008
  125 O                    8.0000    -0.11395728    -9.02579086    -2.24558250
  126 Si                  14.0000     0.41391633    -0.11490083    -1.31575605
  127 O                    8.0000     1.89660522     0.04932599    -2.06976466
  128 O                    8.0000    -2.61601205    -8.14925116    -1.84023826
  129 O                    8.0000     1.21459136    -9.09437435     0.43051244
  130 Si                  14.0000     5.03883850     1.72123038     0.22985694
  131 H                    1.0000     1.38472482    -0.17901065     2.63276528
  132 O                    8.0000    -7.46371812     2.53190260     1.25339173
  133 O                    8.0000    -2.47574873    -5.12152020    -0.13226258
  134 O                    8.0000     0.43068823    -7.66553621     2.62189606
  135 O                    8.0000     6.66786075     1.46197009     0.12310860
  136 O                    8.0000    -1.29420184    -7.15814171    -3.88788820
  137 O                    8.0000     2.30793780    -4.58938995     6.43866843
  138 O                    8.0000     0.85736386    -2.76745276     5.05550070
  139 Si                  14.0000     1.65462568    -4.32084019    -3.28455783
  140 Si                  14.0000    -2.04767723    -0.67011478    -3.47030412
  141 H                    1.0000     0.55841998    -9.17104833    -1.57388483
  142 H                    1.0000     1.74046940    -9.89251521     0.41065036
  143 Si                  14.0000     5.04853916    -3.73543985     0.56283121
  144 Si                  14.0000     3.48870211     0.47043319    -2.42353327
  145 H                    1.0000     2.53028027    -4.93335980     7.29981000
  146 O                    8.0000     3.16733867     6.89687369    -3.41647763
  147 O                    8.0000    -1.66348111     1.69750762     1.55683725
  148 H                    1.0000     4.94191397    -1.83398660    -1.22743366
  149 O                    8.0000     4.44071594     1.16121158     1.67399829
  150 H                    1.0000    -1.74619176     1.63499660    -4.38619960
  151 H                    1.0000     1.45950185     9.81693074    -4.48217726
  152 H                    1.0000    -1.38174637     9.65241598     0.78187146
  153 H                    1.0000    -4.16866028     6.93153477     2.92167071
  154 Bi                  83.0000    -1.36640077     0.74363753     5.08019932

      Atomic Mass 
      ----------- 

      O                 15.994910
      H                  1.007825
      Si                27.976930
      Bi               208.980400


 Effective nuclear repulsion energy (a.u.)   49318.9728499025

            Nuclear Dipole moment (a.u.) 
            ----------------------------
        X                 Y               Z
 ---------------- ---------------- ----------------
    -0.0000000000    -0.0000000000     0.0000000000



                                Z-matrix (autoz)
                                -------- 

 Units are Angstrom for bonds and degrees for angles

      Type          Name      I     J     K     L     M      Value
      ----------- --------  ----- ----- ----- ----- ----- ----------
    1 Stretch                  1    10                       1.65256
    2 Stretch                  1    60                       0.95394
    3 Stretch                  2   133                       0.97584
    4 Stretch                  3    56                       0.95256
    5 Stretch                  4   116                       1.65265
    6 Stretch                  4   125                       1.65057
    7 Stretch                  4   128                       1.69432
    8 Stretch                  4   136                       1.67325
    9 Stretch                  5    53                       1.65811
   10 Stretch                  5    81                       1.66600
   11 Stretch                  5   129                       1.67444
   12 Stretch                  5   134                       1.66887
   13 Stretch                  6    57                       1.66132
   14 Stretch                  6    86                       1.65134
   15 Stretch                  6   137                       1.66011
   16 Stretch                  6   138                       1.69176
   17 Stretch                  7    52                       0.98296
   18 Stretch                  8    65                       1.64831
   19 Stretch                  8    74                       1.66072
   20 Stretch                  8    94                       1.68625
   21 Stretch                  8   133                       1.67438
   22 Stretch                  9    33                       1.66461
   23 Stretch                  9    75                       1.65498
   24 Stretch                  9    98                       1.67357
   25 Stretch                  9   108                       1.65621
   26 Stretch                 10    83                       1.66374
   27 Stretch                 10   117                       1.67812
   28 Stretch                 10   149                       1.66147
   29 Stretch                 11    45                       0.97425
   30 Stretch                 12    19                       1.68169
   31 Stretch                 12    35                       1.65187
   32 Stretch                 12   103                       1.66776
   33 Stretch                 12   104                       1.65705
   34 Stretch                 13    23                       1.67329
   35 Stretch                 13   107                       1.66663
   36 Stretch                 13   115                       1.64329
   37 Stretch                 13   147                       1.66796
   38 Stretch                 14    27                       1.65261
   39 Stretch                 14    32                       1.66826
   40 Stretch                 14    54                       1.66861
   41 Stretch                 14   119                       1.66651
   42 Stretch                 15    81                       0.98358
   43 Stretch                 16    43                       1.67109
   44 Stretch                 16    45                       1.67523
   45 Stretch                 16    62                       1.65367
   46 Stretch                 16    80                       1.65973
   47 Stretch                 17    22                       1.65594
   48 Stretch                 17    44                       1.68783
   49 Stretch                 17    52                       1.67409
   50 Stretch                 17    66                       1.65326
   51 Stretch                 18    26                       1.65099
   52 Stretch                 18    56                       1.66394
   53 Stretch                 18    68                       1.66173
   54 Stretch                 18   146                       1.68740
   55 Stretch                 19    30                       0.98085
   56 Stretch                 20    72                       0.95343
   57 Stretch                 20   139                       1.65780
   58 Stretch                 21    73                       0.95308
   59 Stretch                 21   143                       1.65653
   60 Stretch                 22    48                       0.97025
   61 Stretch                 23    99                       0.98622
   62 Stretch                 24    76                       0.95766
   63 Stretch                 24   140                       1.65381
   64 Stretch                 25    77                       0.95661
   65 Stretch                 25   144                       1.66754
   66 Stretch                 26   102                       0.97839
   67 Stretch                 27    40                       0.95395
   68 Stretch                 28    36                       1.65476
   69 Stretch                 28    87                       0.96836
   70 Stretch                 29    37                       1.68003
   71 Stretch                 29    96                       0.95893
   72 Stretch                 31    80                       0.95310
   73 Stretch                 32   118                       0.98904
   74 Stretch                 33    90                       0.98459
   75 Stretch                 34    42                       1.66076
   76 Stretch                 34   100                       0.95505
   77 Stretch                 35   106                       1.67373
   78 Stretch                 36    51                       1.67606
   79 Stretch                 36    92                       1.65797
   80 Stretch                 36    97                       1.66892
   81 Stretch                 37    47                       1.65881
   82 Stretch                 37    79                       1.66289
   83 Stretch                 37    93                       1.65311
   84 Stretch                 38    46                       1.66080
   85 Stretch                 38   139                       1.66958
   86 Stretch                 39    50                       1.66272
   87 Stretch                 39   143                       1.66700
   88 Stretch                 41   128                       0.97168
   89 Stretch                 42    74                       1.67182
   90 Stretch                 42    91                       1.65290
   91 Stretch                 42   136                       1.67024
   92 Stretch                 43   106                       1.66048
   93 Stretch                 44   110                       1.65264
   94 Stretch                 46    53                       1.66396
   95 Stretch                 46    75                       1.66598
   96 Stretch                 46    95                       1.65302
   97 Stretch                 47   110                       1.66544
   98 Stretch                 49    78                       0.95576
   99 Stretch                 50    57                       1.66911
  100 Stretch                 50    83                       1.66537
  101 Stretch                 50   101                       1.65587
  102 Stretch                 51   110                       1.65491
  103 Stretch                 54   114                       1.66120
  104 Stretch                 55   105                       0.95389
  105 Stretch                 55   122                       1.65246
  106 Stretch                 58   116                       0.95382
  107 Stretch                 59   126                       1.65586
  108 Stretch                 59   140                       1.67444
  109 Stretch                 61   147                       0.98727
  110 Stretch                 62   153                       0.95433
  111 Stretch                 63   130                       1.67289
  112 Stretch                 63   144                       1.65870
  113 Stretch                 64    92                       0.95283
  114 Stretch                 65   122                       1.67883
  115 Stretch                 66   152                       0.95302
  116 Stretch                 67    93                       0.95354
  117 Stretch                 68   151                       0.95267
  118 Stretch                 69   101                       0.95333
  119 Stretch                 70   135                       0.95347
  120 Stretch                 71   132                       0.95307
  121 Stretch                 78   114                       1.67801
  122 Stretch                 79   114                       1.65960
  123 Stretch                 82    94                       0.95696
  124 Stretch                 84   113                       0.95928
  125 Stretch                 84   139                       1.65156
  126 Stretch                 85   143                       1.65614
  127 Stretch                 85   148                       0.96241
  128 Stretch                 86   111                       0.96224
  129 Stretch                 88   140                       1.66754
  130 Stretch                 88   150                       0.96991
  131 Stretch                 89   112                       0.96773
  132 Stretch                 89   144                       1.65259
  133 Stretch                 91   139                       1.66903
  134 Stretch                 95   143                       1.67848
  135 Stretch                 97   106                       1.66117
  136 Stretch                 98   123                       0.97936
  137 Stretch                103   122                       1.65519
  138 Stretch                104   120                       0.95345
  139 Stretch                106   132                       1.65756
  140 Stretch                107   126                       1.65048
  141 Stretch                108   126                       1.65858
  142 Stretch                109   122                       1.66423
  143 Stretch                109   140                       1.66408
  144 Stretch                110   115                       1.67661
  145 Stretch                114   146                       1.65630
  146 Stretch                117   131                       0.98211
  147 Stretch                119   130                       1.66236
  148 Stretch                121   134                       0.95631
  149 Stretch                124   154                       3.41749
  150 Stretch                124   138                       0.96114
  151 Stretch                125   141                       0.96144
  152 Stretch                126   127                       1.67149
  153 Stretch                127   144                       1.68442
  154 Stretch                129   142                       0.95602
  155 Stretch                130   135                       1.65297
  156 Stretch                130   149                       1.66040
  157 Stretch                137   145                       0.95358
  158 Bend                     1    10    83               112.07414
  159 Bend                     1    10   117               110.51736
  160 Bend                     1    10   149               110.36330
  161 Bend                     2   133     8               140.56902
  162 Bend                     3    18    26               111.86419
  163 Bend                     3    18    68               108.79304
  164 Bend                     3    18   146               109.53619
  165 Bend                     4   125   141               163.60251
  166 Bend                     4   128    41               145.07993
  167 Bend                     4   136    42               152.81369
  168 Bend                     5    53    46               166.51302
  169 Bend                     5    81    15               148.04851
  170 Bend                     5   129   142               161.27938
  171 Bend                     5   134   121               163.94280
  172 Bend                     6    50    39               108.94122
  173 Bend                     6    50    83               105.23418
  174 Bend                     6    50   101               112.34390
  175 Bend                     6   138   124               152.05209
  176 Bend                     7    52    17               138.77263
  177 Bend                     8    65   122               168.42202
  178 Bend                     8    74    42               169.32405
  179 Bend                     8    94    82               153.23447
  180 Bend                     9    33    90               141.53534
  181 Bend                     9    75    46               167.36864
  182 Bend                     9    98   123               139.62599
  183 Bend                     9   108   126               169.87325
  184 Bend                    10    83    50               172.25838
  185 Bend                    10   117   131               137.57408
  186 Bend                    10   130    63               107.94005
  187 Bend                    10   130   119               106.33936
  188 Bend                    10   130   135               113.82451
  189 Bend                    11    45    16               141.16692
  190 Bend                    12    19    30               134.44411
  191 Bend                    12    35   106               172.21507
  192 Bend                    12   103   122               170.58881
  193 Bend                    13    23    99               131.08594
  194 Bend                    13   107   126               165.15227
  195 Bend                    13   115   110               168.81452
  196 Bend                    13   147    61               146.58172
  197 Bend                    14    27    40               171.35395
  198 Bend                    14    32   118               142.45084
  199 Bend                    14    54   114               168.75986
  200 Bend                    14   119   130               164.12083
  201 Bend                    16    43   106               168.74460
  202 Bend                    16    62   153               167.19988
  203 Bend                    17    22    48               158.71429
  204 Bend                    17    44   110               147.36219
  205 Bend                    18    26   102               166.52108
  206 Bend                    18   146   114               154.32708
  207 Bend                    19    12    35               111.47343
  208 Bend                    19    12   103               104.46263
  209 Bend                    19    12   104               109.93187
  210 Bend                    20   139    38               110.34370
  211 Bend                    20   139    84               111.21619
  212 Bend                    20   139    91               109.70791
  213 Bend                    21   143    39               110.27686
  214 Bend                    21   143    85               111.72984
  215 Bend                    21   143    95               110.79566
  216 Bend                    22    17    44               104.61921
  217 Bend                    22    17    52               109.80091
  218 Bend                    22    17    66               113.62923
  219 Bend                    23    13   107               106.89294
  220 Bend                    23    13   115               114.47334
  221 Bend                    23    13   147               107.98713
  222 Bend                    24   140    59               110.21086
  223 Bend                    24   140    88               113.78699
  224 Bend                    24   140   109               108.39336
  225 Bend                    25   144    63               109.13281
  226 Bend                    25   144    89               112.52257
  227 Bend                    25   144   127               106.57459
  228 Bend                    26    18    56               111.83350
  229 Bend                    26    18    68               111.87959
  230 Bend                    26    18   146               105.42896
  231 Bend                    27    14    32               110.81330
  232 Bend                    27    14    54               108.67444
  233 Bend                    27    14   119               113.21062
  234 Bend                    28    36    51               106.27646
  235 Bend                    28    36    92               111.95788
  236 Bend                    28    36    97               111.13824
  237 Bend                    29    37    47               109.50656
  238 Bend                    29    37    79               106.53884
  239 Bend                    29    37    93               109.92560
  240 Bend                    31    16    43               110.45252
  241 Bend                    31    16    45               110.41874
  242 Bend                    31    16    62               110.71367
  243 Bend                    32    14    54               109.62310
  244 Bend                    32    14   119               106.98461
  245 Bend                    33     9    75               111.79980
  246 Bend                    33     9    98               109.36167
  247 Bend                    33     9   108               110.70251
  248 Bend                    34    42    74               110.62693
  249 Bend                    34    42    91               110.09968
  250 Bend                    34    42   136               113.20323
  251 Bend                    35    12   103               109.38206
  252 Bend                    35    12   104               110.84225
  253 Bend                    35   106    43               107.99182
  254 Bend                    35   106    97               107.54471
  255 Bend                    35   106   132               109.57035
  256 Bend                    36    28    87               165.15062
  257 Bend                    36    51   110               162.78353
  258 Bend                    36    97   106               173.90630
  259 Bend                    37    29    96               148.79570
  260 Bend                    37    47   110               170.21409
  261 Bend                    37   114    54               108.13483
  262 Bend                    37   114    78               109.62423
  263 Bend                    37   114   146               110.37964
  264 Bend                    38    46    53               110.29488
  265 Bend                    38    46    75               107.23827
  266 Bend                    38    46    95               108.74943
  267 Bend                    38   139    84               108.09856
  268 Bend                    38   139    91               106.83057
  269 Bend                    39    50    57               108.63964
  270 Bend                    39    50    83               108.25693
  271 Bend                    39    50   101               111.00504
  272 Bend                    39   143    85               110.70225
  273 Bend                    39   143    95               106.34189
  274 Bend                    42    34   100               169.34399
  275 Bend                    42    91   139               173.10585
  276 Bend                    43    16    45               104.65093
  277 Bend                    43    16    62               111.40356
  278 Bend                    43    16    80               109.80437
  279 Bend                    43   106    97               109.73744
  280 Bend                    43   106   132               111.01778
  281 Bend                    44    17    52               105.80960
  282 Bend                    44    17    66               111.58724
  283 Bend                    44   110    47               114.11178
  284 Bend                    44   110    51               115.64056
  285 Bend                    44   110   115               104.50177
  286 Bend                    45    16    62               109.03466
  287 Bend                    45    16    80               110.73766
  288 Bend                    46    38   139               169.25473
  289 Bend                    46    95   143               159.12510
  290 Bend                    47    37    79               108.00908
  291 Bend                    47    37    93               110.95310
  292 Bend                    47   110    51               107.80207
  293 Bend                    47   110   115               105.96588
  294 Bend                    49    78   114               158.31960
  295 Bend                    50    39   143               172.70263
  296 Bend                    50     6    86               111.07417
  297 Bend                    50     6   137               112.42366
  298 Bend                    50     6   138               104.36783
  299 Bend                    51    36    92               110.57174
  300 Bend                    51    36    97               107.07787
  301 Bend                    51   110   115               108.20330
  302 Bend                    52    17    66               110.94195
  303 Bend                    53     5    81               109.16970
  304 Bend                    53     5   129               110.02278
  305 Bend                    53     5   134               108.75988
  306 Bend                    53    46    75               106.35379
  307 Bend                    53    46    95               115.46898
  308 Bend                    54    14   119               107.44126
  309 Bend                    54   114    78               109.29968
  310 Bend                    54   114    79               110.45276
  311 Bend                    54   114   146               106.00508
  312 Bend                    55   122    65               110.84355
  313 Bend                    55   122   103               111.53580
  314 Bend                    55   122   109               110.91475
  315 Bend                    56    18    68               109.38483
  316 Bend                    56    18   146               108.92644
  317 Bend                    57     6    86               110.62737
  318 Bend                    57     6   137               110.58033
  319 Bend                    57     6   138               106.80884
  320 Bend                    57    50    83               107.65044
  321 Bend                    57    50   101               110.36089
  322 Bend                    58     4   125               111.64099
  323 Bend                    58     4   128               112.31987
  324 Bend                    58     4   136               111.29064
  325 Bend                    59   126   107               110.61301
  326 Bend                    59   126   108               109.62967
  327 Bend                    59   126   127               109.18843
  328 Bend                    59   140    88               104.33683
  329 Bend                    59   140   109               108.99242
  330 Bend                    60    10    83               113.21247
  331 Bend                    60    10   117               109.68737
  332 Bend                    60    10   149               110.02537
  333 Bend                    62    16    80               111.03416
  334 Bend                    63   130   119               105.63031
  335 Bend                    63   130   135               110.13429
  336 Bend                    63   130   149               109.47020
  337 Bend                    63   144    89               109.47455
  338 Bend                    63   144   127               109.36974
  339 Bend                    64    36    28               112.39495
  340 Bend                    64    36    51               110.03080
  341 Bend                    64    36    97               109.73317
  342 Bend                    65     8    74               110.21337
  343 Bend                    65     8    94               109.71557
  344 Bend                    65     8   133               112.37334
  345 Bend                    65   122   103               107.16668
  346 Bend                    65   122   109               104.85574
  347 Bend                    67    37    29               110.68964
  348 Bend                    67    37    47               110.08650
  349 Bend                    67    37    79               111.90138
  350 Bend                    68    18   146               109.26141
  351 Bend                    69    50    39               110.93062
  352 Bend                    69    50    57               110.84023
  353 Bend                    69    50    83               110.41769
  354 Bend                    70   130    63               110.35009
  355 Bend                    70   130   119               112.89455
  356 Bend                    70   130   149               110.42999
  357 Bend                    71   106    35               110.52595
  358 Bend                    71   106    43               110.35253
  359 Bend                    71   106    97               110.60961
  360 Bend                    72   139    38               109.97166
  361 Bend                    72   139    84               112.35899
  362 Bend                    72   139    91               108.89290
  363 Bend                    73   143    39               110.08563
  364 Bend                    73   143    85               111.83006
  365 Bend                    73   143    95               110.88954
  366 Bend                    74     8    94               108.67654
  367 Bend                    74     8   133               107.98176
  368 Bend                    74    42    91               110.17716
  369 Bend                    74    42   136               102.73818
  370 Bend                    75     9    98               108.81355
  371 Bend                    75     9   108               107.11490
  372 Bend                    75    46    95               108.40052
  373 Bend                    76    24   140               169.81324
  374 Bend                    77    25   144               161.40664
  375 Bend                    78   114    79               107.44040
  376 Bend                    78   114   146               113.21958
  377 Bend                    79    37    93               111.78059
  378 Bend                    79   114   146               110.43911
  379 Bend                    81     5   129               108.96332
  380 Bend                    81     5   134               110.37488
  381 Bend                    83    10   117               106.85324
  382 Bend                    83    10   149               109.11657
  383 Bend                    83    50   101               110.82380
  384 Bend                    84   139    91               110.53793
  385 Bend                    85   143    95               106.80735
  386 Bend                    86     6   137               111.13227
  387 Bend                    86     6   138               109.73673
  388 Bend                    88   140   109               111.00533
  389 Bend                    89   144   127               109.69411
  390 Bend                    91    42   136               109.77873
  391 Bend                    92    36    97               109.66348
  392 Bend                    94     8   133               107.77621
  393 Bend                    97   106   132               110.87083
  394 Bend                    98     9   108               108.97568
  395 Bend                   103    12   104               110.57615
  396 Bend                   103   122   109               111.26201
  397 Bend                   105    55   122               172.70507
  398 Bend                   107    13   115               108.19818
  399 Bend                   107    13   147               107.84792
  400 Bend                   107   126   108               104.85414
  401 Bend                   107   126   127               110.84443
  402 Bend                   108   126   127               111.65678
  403 Bend                   111     6    57               109.35697
  404 Bend                   111     6   137               111.39875
  405 Bend                   111     6   138               110.77102
  406 Bend                   112    89   144               162.31149
  407 Bend                   113    84   139               167.63028
  408 Bend                   114    37    29               107.02078
  409 Bend                   114    37    47               105.50659
  410 Bend                   114    37    93               113.73503
  411 Bend                   115    13   147               111.17080
  412 Bend                   116     4   125               112.49612
  413 Bend                   116     4   128               111.29164
  414 Bend                   116     4   136               111.34991
  415 Bend                   117    10   149               107.76152
  416 Bend                   119   130   135               112.52661
  417 Bend                   119   130   149               107.90400
  418 Bend                   120    12    19               109.93670
  419 Bend                   120    12    35               109.94592
  420 Bend                   120    12   103               111.54326
  421 Bend                   122   109   140               169.57904
  422 Bend                   125     4   128               106.59895
  423 Bend                   125     4   136               111.83174
  424 Bend                   126    59   140               170.18693
  425 Bend                   126   127   144               163.28291
  426 Bend                   128     4   136               102.75518
  427 Bend                   129     5   134               109.54102
  428 Bend                   130    63   144               169.57551
  429 Bend                   130    10     1               110.95183
  430 Bend                   130    10    83               111.06482
  431 Bend                   130    10   117               105.07308
  432 Bend                   135   130   149               110.99441
  433 Bend                   137     6   138               107.81774
  434 Bend                   138   124   154               135.31266
  435 Bend                   140    88   150               141.22581
  436 Bend                   143    85   148               172.83377
  437 Bend                   145     6    57               109.45340
  438 Bend                   145     6    86               111.35954
  439 Bend                   145     6   138               108.73033
  440 Bend                   151    18    26               110.82016
  441 Bend                   151    18    56               110.45791
  442 Bend                   151    18   146               109.21074
  443 Bend                   152    17    22               115.20299
  444 Bend                   152    17    44               111.56473
  445 Bend                   152    17    52               109.37008
  446 Torsion                  1    10    83    50         177.45590
  447 Torsion                  1    10   117   131        -131.43870
  448 Torsion                  1    10   130    63        -158.36087
  449 Torsion                  1    10   130   119         -45.40424
  450 Torsion                  1    10   130   135          79.05900
  451 Torsion                 10     1   149   130         170.05719
  452 Torsion                  2   133     8    65         178.69245
  453 Torsion                  2   133     8    74         -59.54283
  454 Torsion                  2   133     8    94          57.69005
  455 Torsion                  4   136    42    34        -140.20336
  456 Torsion                  4   136    42    74         -20.87196
  457 Torsion                  4   136    42    91          96.32747
  458 Torsion                  5    53    46    38         -76.24587
  459 Torsion                  5    53    46    75          39.71775
  460 Torsion                  5    53    46    95         159.99248
  461 Torsion                  6   138   124   154         162.23485
  462 Torsion                  7    52    17    22          39.97932
  463 Torsion                  7    52    17    44         -72.40063
  464 Torsion                  7    52    17    66         166.41520
  465 Torsion                  8    65   122    55         116.10682
  466 Torsion                  8    65   122   103        -121.97436
  467 Torsion                  8    65   122   109          -3.64056
  468 Torsion                  8    74    42    34         141.57862
  469 Torsion                  8    74    42    91         -96.44810
  470 Torsion                  8    74    42   136          20.46777
  471 Torsion                  9    75    46    38         -24.03020
  472 Torsion                  9    75    46    53        -142.03381
  473 Torsion                  9    75    46    95          93.22163
  474 Torsion                  9   108   126    59         -53.42448
  475 Torsion                  9   108   126   107          65.34559
  476 Torsion                  9   108   126   127        -174.56127
  477 Torsion                 10    83    50    39          29.75470
  478 Torsion                 10    83    50    57         -87.51300
  479 Torsion                 10    83    50   101         151.71271
  480 Torsion                 11    45    16    43         -20.55310
  481 Torsion                 11    45    16    62        -139.84187
  482 Torsion                 11    45    16    80          97.70469
  483 Torsion                 12    35   106    43        -165.65274
  484 Torsion                 12    35   106    97         -47.28869
  485 Torsion                 12    35   106   132          73.30496
  486 Torsion                 12   103   122    55        -176.08547
  487 Torsion                 12   103   122    65          62.43020
  488 Torsion                 12   103   122   109         -51.65818
  489 Torsion                 13   107   126    59         109.43932
  490 Torsion                 13   107   126   108          -8.66549
  491 Torsion                 13   107   126   127        -129.29791
  492 Torsion                 13   115   110    44        -174.92751
  493 Torsion                 13   115   110    47         -54.07085
  494 Torsion                 13   115   110    51          61.32264
  495 Torsion                 14    54   114    78         118.55049
  496 Torsion                 14    54   114    79        -123.44596
  497 Torsion                 14    54   114   146          -3.79514
  498 Torsion                 14   119   130    63          38.81421
  499 Torsion                 14   119   130   135         159.01311
  500 Torsion                 14   119   130   149         -78.19392
  501 Torsion                 15    81     5    53         107.79133
  502 Torsion                 15    81     5   129         -12.39085
  503 Torsion                 15    81     5   134        -132.71545
  504 Torsion                 16    43   106    35          46.45878
  505 Torsion                 16    43   106    97         -70.49378
  506 Torsion                 16    43   106   132         166.59561
  507 Torsion                 17    44   110    47        -115.58626
  508 Torsion                 17    44   110    51         118.51390
  509 Torsion                 17    44   110   115          -0.30644
  510 Torsion                 18   146   114    54         -37.02459
  511 Torsion                 18   146   114    78        -156.83944
  512 Torsion                 18   146   114    79          82.63516
  513 Torsion                 19    12    35   106         127.78064
  514 Torsion                 19    12   103   122           3.41352
  515 Torsion                 12    19   104   120        -174.93823
  516 Torsion                 20   139    38    46         129.01812
  517 Torsion                 20   139    84   113        -141.15636
  518 Torsion                 20   139    91    42         104.62737
  519 Torsion                 21   143    39    50        -147.84162
  520 Torsion                 21   143    85   148         145.03876
  521 Torsion                 21   143    95    46        -154.79428
  522 Torsion                 22    17    44   110         -46.30084
  523 Torsion                 17    22    66   152        -175.34381
  524 Torsion                 23    13   107   126          79.76673
  525 Torsion                 23    13   115   110         147.74976
  526 Torsion                 23    13   147    61        -119.12596
  527 Torsion                 24   140    59   126         179.38308
  528 Torsion                 24   140    88   150         -92.12719
  529 Torsion                 24   140   109   122          29.37600
  530 Torsion                 25   144    63   130         127.85320
  531 Torsion                 25   144    89   112        -121.18822
  532 Torsion                 25   144   127   126         134.91389
  533 Torsion                  3    56    26    18         176.57286
  534 Torsion                 18    26    68   151         177.36541
  535 Torsion                 26    18   146   114          -3.62146
  536 Torsion                 27    14    32   118        -149.51143
  537 Torsion                 27    14    54   114         -22.60906
  538 Torsion                 27    14   119   130         174.66737
  539 Torsion                 28    36    51   110         -21.41830
  540 Torsion                 36    28    92    64         178.08475
  541 Torsion                 28    36    97   106          90.79191
  542 Torsion                 29    37    47   110          36.68695
  543 Torsion                 29    37   114    54         -72.92437
  544 Torsion                 29    37   114    78          46.15451
  545 Torsion                 29    37   114   146         171.53314
  546 Torsion                 37    29    79   114         171.31147
  547 Torsion                 37    29    93    67        -177.26742
  548 Torsion                 30    19    12    35        -166.42753
  549 Torsion                 30    19    12   103         -48.40943
  550 Torsion                 30    19    12   104          70.25045
  551 Torsion                 32    14    27    40         -56.59007
  552 Torsion                 32    14    54   114          98.63609
  553 Torsion                 32    14   119   130          52.30819
  554 Torsion                 33     9    75    46        -133.13994
  555 Torsion                 33     9    98   123        -138.87584
  556 Torsion                 33     9   108   126         -98.84994
  557 Torsion                 34    42    91   139        -173.86060
  558 Torsion                 35    12   103   122         122.85275
  559 Torsion                 12    35   104   120         177.33089
  560 Torsion                 35   106    97    36         -69.51566
  561 Torsion                 71   132    35   106        -178.85723
  562 Torsion                 36    51   110    44        -170.45625
  563 Torsion                 36    51   110    47          60.48949
  564 Torsion                 36    51   110   115         -53.69725
  565 Torsion                 36    97   106    43          47.71697
  566 Torsion                 36    97   106   132         170.71434
  567 Torsion                 37    47   110    44         121.78634
  568 Torsion                 37    47   110    51        -108.29898
  569 Torsion                 37    47   110   115           7.36751
  570 Torsion                 38    46    95   143          70.67243
  571 Torsion                 72    20    38   139        -174.84789
  572 Torsion                 38   139    84   113         -19.87700
  573 Torsion                 38   139    91    42         -14.98739
  574 Torsion                 39    50     6    86           3.17908
  575 Torsion                 39    50     6   137         128.41770
  576 Torsion                 39    50     6   138        -115.00460
  577 Torsion                  6    57    39    50         171.13811
  578 Torsion                 50    39   101    69        -177.53873
  579 Torsion                 73    21    39   143         179.96926
  580 Torsion                 39   143    85   148         -91.63286
  581 Torsion                 39   143    95    46          85.35969
  582 Torsion                 40    27    14    54          63.92204
  583 Torsion                 40    27    14   119        -176.79117
  584 Torsion                 41   128     4   116         -74.39485
  585 Torsion                 41   128     4   125         162.60245
  586 Torsion                 41   128     4   136          44.86948
  587 Torsion                 42    74     8    65         178.07520
  588 Torsion                 42    74     8    94         -61.66429
  589 Torsion                 42    74     8   133          54.98524
  590 Torsion                 42    91   139    84        -132.36883
  591 Torsion                 42   136     4   116         142.00627
  592 Torsion                 42   136     4   125         -91.18481
  593 Torsion                 42   136     4   128          22.78256
  594 Torsion                 43    16    62   153        -104.23435
  595 Torsion                 16    43    80    31        -179.76299
  596 Torsion                 71   132    43   106        -176.65601
  597 Torsion                 44    17    22    48          18.25669
  598 Torsion                 17    44    66   152         171.48127
  599 Torsion                 45    16    43   106           3.46153
  600 Torsion                 45    16    62   153          10.76508
  601 Torsion                 16    45    80    31        -177.33736
  602 Torsion                 46    38   139    84           7.19952
  603 Torsion                 46    38   139    91        -111.77822
  604 Torsion                 46    53     5    81          23.72938
  605 Torsion                 46    53     5   129         143.25818
  606 Torsion                 46    53     5   134         -96.75853
  607 Torsion                 46    75     9    98         105.96388
  608 Torsion                 46    75     9   108         -11.70394
  609 Torsion                 46    95   143    85         -32.89564
  610 Torsion                 47    37    29    96        -107.92763
  611 Torsion                 47    37   114    54          43.64858
  612 Torsion                 47    37   114    78         162.72745
  613 Torsion                 47    37   114   146         -71.89391
  614 Torsion                 37    47    79   114        -177.73512
  615 Torsion                 37    47    93    67        -178.32311
  616 Torsion                 48    22    17    52         -94.89473
  617 Torsion                 48    22    17    66         140.20405
  618 Torsion                 49    78   114    54        -111.89678
  619 Torsion                 49    78   114    79         128.22913
  620 Torsion                 49    78   114   146           6.01565
  621 Torsion                 50    39   143    85          87.99497
  622 Torsion                 50    39   143    95         -27.65917
  623 Torsion                 50    83    10   117          56.25525
  624 Torsion                 50    83    10   149         -59.99847
  625 Torsion                 51    36    28    87           0.69401
  626 Torsion                 36    51    92    64         179.05019
  627 Torsion                 51    36    97   106         -24.87466
  628 Torsion                 52    17    44   110          69.65688
  629 Torsion                 17    52    66   152        -176.37039
  630 Torsion                 53     5   129   142          91.32177
  631 Torsion                 53     5   134   121         179.50999
  632 Torsion                 53    46    38   139         151.84234
  633 Torsion                 53    46    95   143        -164.75855
  634 Torsion                 54    14    32   118          90.54178
  635 Torsion                 54    14   119   130         -65.33922
  636 Torsion                 54   114    37    93         165.47828
  637 Torsion                 37    79    54   114        -176.17685
  638 Torsion                 55   122   109   140        -104.68582
  639 Torsion                 56    18    26   102        -132.37718
  640 Torsion                 18    56    68   151         177.20410
  641 Torsion                 56    18   146   114         116.54412
  642 Torsion                  6    57    86   111        -177.78107
  643 Torsion                  6    57   137   145         177.93887
  644 Torsion                 57     6   138   124        -121.00631
  645 Torsion                 57    50    39   143          41.11004
  646 Torsion                 50    57   101    69         179.02667
  647 Torsion                 59   126   127   144         159.09259
  648 Torsion                 59   140    24    76          68.61731
  649 Torsion                 59   140    88   150          28.02773
  650 Torsion                 59   140   109   122         -90.58997
  651 Torsion                 61   147    13   107          -3.94343
  652 Torsion                 61   147    13   115         114.51645
  653 Torsion                 62    16    43   106         121.14225
  654 Torsion                 16    62    80    31         177.31535
  655 Torsion                 70   135    63   130         177.45346
  656 Torsion                 63   130    10    83          76.27934
  657 Torsion                 63   130    10   117         -38.90193
  658 Torsion                 10   149    63   130         172.34121
  659 Torsion                 63   144    25    77         172.70266
  660 Torsion                 63   144    89   112           0.34479
  661 Torsion                 63   144   127   126          17.06632
  662 Torsion                 65     8    94    82          -4.13327
  663 Torsion                 65   122    55   105        -175.21889
  664 Torsion                 65   122   109   140          15.01399
  665 Torsion                 66    17    44   110        -169.57732
  666 Torsion                 68    18    26   102         104.51552
  667 Torsion                  3    56    68    18        -178.32038
  668 Torsion                 68    18   146   114        -124.01618
  669 Torsion                 74     8    65   122         -24.59253
  670 Torsion                 74     8    94    82        -124.70182
  671 Torsion                 74    42    34   100        -106.66590
  672 Torsion                 74    42    91   139          63.85450
  673 Torsion                 75     9    33    90         -55.35442
  674 Torsion                 75     9    98   123         -16.49367
  675 Torsion                 75     9   108   126         139.02526
  676 Torsion                 75    46    38   139          36.43381
  677 Torsion                 75    46    95   143         -45.60622
  678 Torsion                 76    24   140    88        -174.59821
  679 Torsion                 76    24   140   109         -50.58433
  680 Torsion                 77    25   144    89         -65.56998
  681 Torsion                 77    25   144   127          54.69898
  682 Torsion                 78   114    37    93         -75.44285
  683 Torsion                 37    79    78   114        -174.65269
  684 Torsion                 79    37    29    96           8.64573
  685 Torsion                 79    37    47   110         -78.95341
  686 Torsion                 37    79    93    67         175.43042
  687 Torsion                 80    16    43   106        -115.42916
  688 Torsion                 80    16    62   153         133.03999
  689 Torsion                 81     5   129   142        -149.02382
  690 Torsion                 81     5   134   121          59.76903
  691 Torsion                 82    94     8   133         118.51690
  692 Torsion                 10    83     1    60         178.33388
  693 Torsion                 83    10   117   131          -9.25516
  694 Torsion                 83    10   130   119        -170.76403
  695 Torsion                 83    10   130   135         -46.30079
  696 Torsion                 10    83   149   130        -172.24641
  697 Torsion                 83    50    39   143         -75.52001
  698 Torsion                 83    50     6    86         119.07488
  699 Torsion                 83    50     6   137        -115.68650
  700 Torsion                 83    50     6   138           0.89120
  701 Torsion                  6    57    83    50        -177.34108
  702 Torsion                 50    83   101    69         178.49102
  703 Torsion                 72    20    84   139         178.76371
  704 Torsion                 73    21    85   143        -179.19917
  705 Torsion                 86     6    50   101        -120.24213
  706 Torsion                  6    86    57    50        -170.91760
  707 Torsion                  6    86   137   145        -174.11086
  708 Torsion                 86     6   138   124         119.03592
  709 Torsion                 87    28    36    92         121.51766
  710 Torsion                 87    28    36    97        -115.46671
  711 Torsion                 88   140    59   126          56.85536
  712 Torsion                 88   140   109   122         155.03709
  713 Torsion                 89   144    63   130           4.29905
  714 Torsion                 89   144   127   126        -103.01200
  715 Torsion                 90    33     9    98          65.22278
  716 Torsion                 90    33     9   108        -174.69431
  717 Torsion                 91    42    34   100         131.31534
  718 Torsion                 72    20    91   139         176.23984
  719 Torsion                 91   139    84   113          96.72112
  720 Torsion                 92    36    51   110        -143.13034
  721 Torsion                 92    36    97   106        -144.88329
  722 Torsion                 93    37    29    96         129.93500
  723 Torsion                 93    37    47   110         158.20741
  724 Torsion                 93    37   114   146          49.93579
  725 Torsion                 37    93    79   114        -173.17042
  726 Torsion                 94     8    65   122        -144.22510
  727 Torsion                 95    46    38   139         -80.58925
  728 Torsion                 73    21    95   143         179.19641
  729 Torsion                 95   143    85   148          23.73095
  730 Torsion                 97    36    51   110          97.44392
  731 Torsion                 36    97    92    64        -177.26515
  732 Torsion                 71   132    97   106         175.51595
  733 Torsion                 98     9   108   126          21.46352
  734 Torsion                 99    23    13   107         -60.22425
  735 Torsion                 99    23    13   115         179.98484
  736 Torsion                 99    23    13   147          55.58470
  737 Torsion                100    34    42   136           8.02287
  738 Torsion                101    50    39   143         162.63324
  739 Torsion                101    50     6   137           4.99649
  740 Torsion                101    50     6   138         121.57419
  741 Torsion                  6    57   101    50        -173.66198
  742 Torsion                102    26    18   146         -14.14427
  743 Torsion                103    12    35   106          12.76336
  744 Torsion                 12   103   104   120         177.65243
  745 Torsion                103   122    55   105          65.45538
  746 Torsion                103   122   109   140         130.53727
  747 Torsion                104    12    35   106        -109.41710
  748 Torsion                104    12   103   122        -114.80741
  749 Torsion                105    55   122   109         -59.16658
  750 Torsion                107    13   115   110          28.69051
  751 Torsion                107   126    59   140          -9.56182
  752 Torsion                107   126   127   144          36.99415
  753 Torsion                108     9    98   123          99.98812
  754 Torsion                108   126    59   140         105.58561
  755 Torsion                108   126   127   144         -79.51457
  756 Torsion                109   140    59   126         -61.78065
  757 Torsion                109   140    88   150         145.28268
  758 Torsion                110   115    13   147         -89.55820
  759 Torsion                112    89   144   127         120.35922
  760 Torsion                114    54    14   119        -145.44581
  761 Torsion                115    13   107   126        -156.48228
  762 Torsion                116     4   125   141        -134.02326
  763 Torsion                 10   117     1    60         176.20525
  764 Torsion                117    10   130   119          74.05470
  765 Torsion                117    10   130   135        -161.48206
  766 Torsion                 10   117   149   130        -177.34378
  767 Torsion                118    32    14   119         -25.66557
  768 Torsion                119   130    63   144          27.12288
  769 Torsion                 70   135   119   130        -177.79850
  770 Torsion                 10   149   119   130        -172.53322
  771 Torsion                121   134     5   129         -60.20820
  772 Torsion                122    65     8   133          95.89249
  773 Torsion                124   138     6   137          -2.13771
  774 Torsion                  4   125   116    58         176.75908
  775 Torsion                126   107    13   147         -36.13510
  776 Torsion                127   126    59   140        -131.79950
  777 Torsion                127   144    63   130        -115.91377
  778 Torsion                  4   128   116    58         177.95211
  779 Torsion                128     4   125   141         -11.77675
  780 Torsion                131   117    10   149         107.89676
  781 Torsion                134     5   129   142         -28.18681
  782 Torsion                135   130    63   144         -94.63231
  783 Torsion                 10   149   135   130         179.89067
  784 Torsion                  4   136   116    58        -174.72421
  785 Torsion                136     4   125   141          99.79132
  786 Torsion                136    42    91   139         -48.58981
  787 Torsion                  6   137    57    50         173.08555
  788 Torsion                  6   137    86   111         173.47895
  789 Torsion                  6   138    57    50         177.50289
  790 Torsion                  6   138    86   111        -175.54251
  791 Torsion                  6   138   137   145         176.06608
  792 Torsion                144    63   130   149         143.06738
  793 Torsion                  3    56   146    18        -178.35967
  794 Torsion                 18   146    68   151        -174.36393
  795 Torsion                 37    79   146   114         170.90445
  796 Torsion                 10   149     1    60        -174.72193
  797 Torsion                 70   135   149   130        -179.58012


            XYZ format geometry
            -------------------
   154
 geometry
 O                     3.97507065     1.72141811     4.29538269
 H                    -1.91122686    -5.79624534     0.29002018
 H                     5.28952983     9.62497731    -2.58111219
 Si                   -1.49477362    -8.58312447    -3.03410023
 Si                    0.52751234    -7.66060371     0.95584390
 Si                    2.01485092    -3.99347462     4.91716798
 H                     1.58269404     6.25963548     0.80374698
 Si                   -3.40664635    -4.88870755    -1.50441091
 Si                    0.19842768    -2.40945684     1.04874020
 Si                    3.69458716     0.65092109     3.06805468
 H                    -2.14219135     3.15075303     2.63659483
 Si                   -4.67454627    -0.54157112     1.32836693
 Si                   -0.47422891     2.39391801     0.61726651
 Si                    3.83072181     4.76627916    -0.14175496
 H                    -1.64637535    -7.82738773    -0.37462053
 Si                   -4.19680701     4.38091791     3.38727528
 Si                   -0.76189716     7.12356269     0.82688762
 Si                    2.95823834     8.46288030    -2.82383192
 O                    -3.03973410    -0.64463020     1.70897115
 O                     2.81167629    -5.02973492    -4.23692040
 O                     6.37262730    -4.72015769     0.41714498
 O                    -1.30424469     6.28804920     2.14973465
 O                     0.84940355     2.69227053     1.59648464
 O                    -1.75530778    -1.86410641    -4.57665141
 O                     4.22948891    -0.90916075    -2.99681983
 O                     2.20572757     8.28370380    -1.36527716
 O                     4.73284897     6.09576118     0.24521828
 O                    -4.26776612     2.37040799    -2.78907929
 O                     0.04825915     2.54398394    -4.12369629
 H                    -2.36234985    -1.35091459     1.64278490
 H                    -4.85642260     3.76271504     5.83840812
 O                     2.44114431     4.70425244     0.77928873
 O                     0.61312500    -1.78902534     2.53670277
 O                    -1.90928859    -4.99263779    -5.52062812
 O                    -5.19870582     1.02492499     1.33211479
 Si                   -4.70822280     3.63818748    -1.82110931
 Si                   -0.00680406     4.21845860    -3.99877359
 O                     1.86034756    -4.77016926    -1.68979393
 O                     4.96609452    -3.10226886     2.10269529
 H                     5.13569995     6.93905175     0.43650719
 H                    -3.44787099    -7.68004324    -1.66129674
 Si                   -1.35299544    -5.49578277    -4.03890833
 O                    -5.14723077     3.54292072     2.29777638
 O                    -1.41568890     6.30097552    -0.49396911
 O                    -2.63265795     3.87906945     3.05869174
 Si                    2.05185379    -4.91172337    -0.04615840
 O                    -0.91141169     4.64573680    -2.67560902
 H                    -1.67339338     5.55489250     2.66703289
 H                     4.87910004     4.37452152    -4.97957042
 Si                    4.67363875    -2.47558600     3.61476797
 O                    -3.29641491     4.46625891    -1.46019369
 O                     0.89834901     6.95634384     0.69204923
 O                     1.46117756    -6.37572070     0.47975521
 O                     3.42793158     4.84621540    -1.75904744
 O                    -6.03692279    -1.73584049    -2.57758986
 O                     4.44952831     9.18394148    -2.66633349
 O                     3.38457677    -3.29254420     4.29065692
 H                    -2.37659996   -10.49195484    -4.57295433
 O                    -0.73332316    -0.49438708    -2.44787835
 H                     4.10254373     2.37316097     4.98021207
 H                    -2.23768933     0.90881922     1.70833995
 O                    -4.30085196     6.01382996     3.14770134
 O                     4.25042057     0.95890600    -1.03340475
 H                    -6.40911333     5.23737306    -2.98928861
 O                    -4.14086545    -3.41304861    -1.52153625
 O                    -1.19714036     8.71850176     0.82630026
 H                    -1.02384196     5.26970774    -6.15561332
 O                     2.03407933     9.33529967    -3.89441454
 H                     6.79018676    -2.66673540     5.12825276
 H                     7.60626580     1.29798011     0.08312060
 H                    -8.41353005     2.55513773     1.32863364
 H                     3.45233986    -5.48393685    -4.77754695
 H                     7.13667739    -5.28483881     0.34153640
 O                    -2.41801630    -5.05312178    -2.82863054
 O                     1.10328273    -3.74070750     0.66407684
 H                    -1.59529391    -2.66049477    -5.08386393
 H                     4.41430209    -1.68848605    -3.51987993
 O                     4.16232049     4.47201912    -4.35491767
 O                     1.55547184     4.72538352    -3.73891528
 O                    -4.62991869     3.97753079     4.93788183
 O                    -0.99098267    -7.51096591     0.28702215
 H                    -5.47582495    -6.42412570    -1.54675018
 O                     4.22576274    -0.88101626     3.44097082
 O                     1.73854125    -2.67354961    -3.36838280
 O                     5.05681892    -2.52552361    -0.56802981
 O                     1.45531376    -5.17776292     3.91152560
 H                    -3.78119277     1.72377604    -3.32089490
 O                    -2.24850707     0.84022819    -4.14796505
 O                     3.50733097     1.70297851    -3.52423969
 H                     0.70172585    -2.04805629     3.48247214
 O                     0.14185291    -4.85429663    -3.74564064
 O                    -5.79649091     4.64055230    -2.56930780
 O                    -0.63979621     4.86606899    -5.38177382
 O                    -4.57355945    -6.10522406    -1.54736382
 O                     3.63121409    -4.60476283     0.33313849
 H                     0.55091849     1.73147935    -4.04173337
 O                    -5.34346943     3.09897393    -0.37507769
[...]
  70 H      14.373758   2.452827   0.157075    0.000000   0.000000   0.000000
  71 H     -15.899266   4.828510   2.510754    0.000000   0.000000   0.000000
  72 H       6.523976 -10.363138  -9.028255    0.000000   0.000000   0.000000
  73 H      13.486365  -9.986897   0.645410    0.000000   0.000000   0.000000
  74 O      -4.569388  -9.549016  -5.345337    0.000000   0.000000   0.000000
  75 O       2.084902  -7.068912   1.254923    0.000000   0.000000   0.000000
  76 H      -3.014668  -5.027606  -9.607110    0.000000   0.000000   0.000000
  77 H       8.341821  -3.190776  -6.651609    0.000000   0.000000   0.000000
  78 O       7.865645   8.450891  -8.229601    0.000000   0.000000   0.000000
  79 O       2.939416   8.929680  -7.065525    0.000000   0.000000   0.000000
  80 O      -8.749278   7.516443   9.331244    0.000000   0.000000   0.000000
  81 O      -1.872686 -14.193667   0.542393    0.000000   0.000000   0.000000
  82 H     -10.347809 -12.139837  -2.922934    0.000000   0.000000   0.000000
  83 O       7.985534  -1.664879   6.502492    0.000000   0.000000   0.000000
  84 O       3.285367  -5.052276  -6.365321    0.000000   0.000000   0.000000
  85 O       9.556002  -4.772548  -1.073421    0.000000   0.000000   0.000000
  86 O       2.750144  -9.784553   7.391712    0.000000   0.000000   0.000000
  87 H      -7.145418   3.257464  -6.275581    0.000000   0.000000   0.000000
  88 O      -4.249062   1.587801  -7.838517    0.000000   0.000000   0.000000
  89 O       6.627894   3.218163  -6.659847    0.000000   0.000000   0.000000
  90 H       1.326070  -3.870265   6.580918    0.000000   0.000000   0.000000
  91 O       0.268063  -9.173290  -7.078234    0.000000   0.000000   0.000000
  92 O     -10.953780   8.769372  -4.855288    0.000000   0.000000   0.000000
  93 O      -1.209040   9.195537 -10.170078    0.000000   0.000000   0.000000
  94 O      -8.642774 -11.537201  -2.924094    0.000000   0.000000   0.000000
  95 O       6.862000  -8.701740   0.629540    0.000000   0.000000   0.000000
  96 H       1.041085   3.272022  -7.637769    0.000000   0.000000   0.000000
  97 O     -10.097693   5.856212  -0.708794    0.000000   0.000000   0.000000
  98 O      -2.680891  -5.367664   2.000133    0.000000   0.000000   0.000000
  99 H       2.602818   3.952214   4.107216    0.000000   0.000000   0.000000
 100 H      -4.280549  -9.212353 -12.092448    0.000000   0.000000   0.000000
 101 O      11.359679  -4.930837   8.657928    0.000000   0.000000   0.000000
 102 H       3.256135  15.049491  -1.089645    0.000000   0.000000   0.000000
 103 O      -9.036419  -2.187204  -0.411588    0.000000   0.000000   0.000000
 104 O     -10.506023  -2.762642   4.506144    0.000000   0.000000   0.000000
 105 H     -12.924373  -2.962935  -5.792702    0.000000   0.000000   0.000000
 106 Si    -10.981785   4.854913   2.132003    0.000000   0.000000   0.000000
 107 O       0.009894   2.399498  -0.974890    0.000000   0.000000   0.000000
 108 O       0.849939  -2.434120  -0.271917    0.000000   0.000000   0.000000
 109 O      -6.386200  -2.082963  -4.858395    0.000000   0.000000   0.000000
 110 Si     -3.218535   9.158719  -2.313492    0.000000   0.000000   0.000000
 111 H       2.242289 -11.095454   6.238429    0.000000   0.000000   0.000000
 112 H       6.923311   4.836593  -7.458436    0.000000   0.000000   0.000000
 113 H       3.298299  -3.262895  -6.075289    0.000000   0.000000   0.000000
 114 Si      5.817608   9.911693  -6.299124    0.000000   0.000000   0.000000
 115 O      -1.972236   7.018594  -0.337386    0.000000   0.000000   0.000000
 116 O      -3.937919 -18.493701  -7.562117    0.000000   0.000000   0.000000
 117 O       3.874287   1.007017   5.205914    0.000000   0.000000   0.000000
 118 H       3.396369   7.696835   2.240607    0.000000   0.000000   0.000000
 119 O       8.768678   6.292660   0.190867    0.000000   0.000000   0.000000
 120 H     -11.476155  -3.689311   5.708829    0.000000   0.000000   0.000000
 121 H       0.422243 -14.896990   6.670276    0.000000   0.000000   0.000000
 122 Si     -8.735312  -3.435496  -3.263714    0.000000   0.000000   0.000000
 123 H      -3.780895  -6.728854   1.398189    0.000000   0.000000   0.000000
 124 H       0.469979  -4.210963  10.522032    0.000000   0.000000   0.000000
 125 O      -0.215348 -17.056272  -4.243536    0.000000   0.000000   0.000000
 126 Si      0.782188  -0.217131  -2.486418    0.000000   0.000000   0.000000
 127 O       3.584064   0.093213  -3.911288    0.000000   0.000000   0.000000
 128 O      -4.943546 -15.399852  -3.477546    0.000000   0.000000   0.000000
 129 O       2.295245 -17.185876   0.813551    0.000000   0.000000   0.000000
 130 Si      9.522024   3.252654   0.434367    0.000000   0.000000   0.000000
 131 H       2.616750  -0.338281   4.975205    0.000000   0.000000   0.000000
 132 O     -14.104382   4.784602   2.368567    0.000000   0.000000   0.000000
 133 O      -4.678487  -9.678270  -0.249940    0.000000   0.000000   0.000000
 134 O       0.813883 -14.485763   4.954665    0.000000   0.000000   0.000000
 135 O      12.600430   2.762723   0.232642    0.000000   0.000000   0.000000
 136 O      -2.445687 -13.526926  -7.347043    0.000000   0.000000   0.000000
 137 O       4.361370  -8.672689  12.167319    0.000000   0.000000   0.000000
 138 O       1.620183  -5.229727   9.553511    0.000000   0.000000   0.000000
 139 Si      3.126789  -8.165204  -6.206914    0.000000   0.000000   0.000000
 140 Si     -3.869549  -1.266333  -6.557924    0.000000   0.000000   0.000000
 141 H       1.055261 -17.330768  -2.974211    0.000000   0.000000   0.000000
 142 H       3.289010 -18.694143   0.776017    0.000000   0.000000   0.000000
 143 Si      9.540356  -7.058958   1.063597    0.000000   0.000000   0.000000
 144 Si      6.592691   0.888990  -4.579814    0.000000   0.000000   0.000000
 145 H       4.781536  -9.322698  13.794641    0.000000   0.000000   0.000000
 146 O       5.985402  13.033201  -6.456207    0.000000   0.000000   0.000000
 147 O      -3.143523   3.207824   2.941996    0.000000   0.000000   0.000000
 148 H       9.338863  -3.465732  -2.319513    0.000000   0.000000   0.000000
 149 O       8.391736   2.194372   3.163398    0.000000   0.000000   0.000000
 150 H      -3.299824   3.089696  -8.288715    0.000000   0.000000   0.000000
 151 H       2.758059  18.551309  -8.470087    0.000000   0.000000   0.000000
 152 H      -2.611122  18.240421   1.477523    0.000000   0.000000   0.000000
 153 H      -7.877626  13.098701   5.521157    0.000000   0.000000   0.000000
 154 Bi     -2.582123   1.405271   9.600185    0.000000   0.000000   0.000000


                                 NWChem DFT Module
                                 -----------------


                                   Bi@Quartz ecp



  Caching 1-el integrals 


         Total DFT energy =    -5018.372988927006
      One electron energy =   -55283.809596581574
           Coulomb energy =    26830.462370945901
    Exchange-Corr. energy =     -615.636705236221
 Nuclear repulsion energy =    24050.610941944888

    Dispersion correction =       -0.570101467960

 Numeric. integr. density =      795.001098453596

     Total iterative time =     75.7s




                         DFT ENERGY GRADIENTS

    atom               coordinates                        gradient
                 x          y          z           x          y          z
   1 O       7.511794   3.253009   8.117096   -0.000007  -0.000001  -0.000009
   2 H      -3.611695 -10.953315   0.548059    0.000011   0.000000  -0.000005
   3 H       9.995762  18.188570  -4.877595    0.000002   0.000000   0.000002
   4 Si     -2.824713 -16.219753  -5.733618   -0.000001   0.000005  -0.000023
   5 Si      0.996854 -14.476442   1.806283   -0.000014   0.000013  -0.000014
   6 Si      3.807516  -7.546573   9.292100   -0.000008  -0.000016   0.000006
   7 H       2.990858  11.828996   1.518862    0.000003  -0.000006  -0.000019
   8 Si     -6.437628  -9.238318  -2.842924    0.000021   0.000022   0.000006
   9 Si      0.374974  -4.553213   1.981832   -0.000019  -0.000036  -0.000034
  10 Si      6.981757   1.230063   5.797783    0.000083   0.000000   0.000021
  11 H      -4.048155   5.954060   4.982442   -0.000018   0.000015  -0.000005
  12 Si     -8.833612  -1.023421   2.510250    0.000018   0.000003  -0.000014
  13 Si     -0.896163   4.523849   1.166465   -0.000020  -0.000030   0.000003
  14 Si      7.239015   9.006962  -0.267878    0.000042   0.000006   0.000022
  15 H      -3.111198 -14.791618  -0.707930    0.000006   0.000004  -0.000013
  16 Si     -7.930815   8.278734   6.401022   -0.000020  -0.000020   0.000001
  17 Si     -1.439777  13.461582   1.562591   -0.000006  -0.000013   0.000020
  18 Si      5.590260  15.992525  -5.336269    0.000005   0.000044   0.000015
  19 O      -5.744265  -1.218174   3.229487   -0.000029  -0.000005  -0.000019
  20 O       5.313298  -9.504821  -8.006619    0.000008  -0.000010   0.000000
  21 O      12.042519  -8.919805   0.788290    0.000004  -0.000008   0.000008
  22 O      -2.464665  11.882690   4.062409    0.000009   0.000004   0.000007
  23 O       1.605140   5.087654   3.016919    0.000015   0.000002  -0.000015
  24 O      -3.317051  -3.522650  -8.648617   -0.000056  -0.000040  -0.000025
  25 O       7.992575  -1.718065  -5.663168    0.000010   0.000001   0.000022
  26 O       4.168221  15.653930  -2.580000   -0.000002  -0.000012  -0.000012
  27 O       8.943788  11.519318   0.463395   -0.000013  -0.000010   0.000019
  28 O      -8.064909   4.479422  -5.270596   -0.000017   0.000026   0.000023
  29 O       0.091197   4.817433  -7.792656   -0.002686   0.007696  -0.000244
  30 H      -4.464194  -2.552858   3.104413    0.000000   0.000000   0.000000
  31 H      -9.177308   7.110500  11.032992    0.000000   0.000000   0.000000
  32 O       4.613094   8.889748   1.472642    0.000000   0.000000   0.000000
  33 O       1.158638  -3.380768   4.793673    0.000000   0.000000   0.000000
  34 O      -3.608032  -9.434717 -10.432474    0.000000   0.000000   0.000000
  35 O      -9.824129   1.936827   2.517332    0.000000   0.000000   0.000000
  36 Si     -8.897251   6.875177  -3.441398    0.000000   0.000000   0.000000
  37 Si     -0.012858   7.971731  -7.556586    0.000000   0.000000   0.000000
  38 O       3.515547  -9.014313  -3.193248    0.000000   0.000000   0.000000
  39 O       9.384558  -5.862438   3.973518    0.000000   0.000000   0.000000
  40 H       9.705066  13.112906   0.824879    0.000000   0.000000   0.000000
  41 H      -6.515531 -14.513177  -3.139396    0.000000   0.000000   0.000000
  42 Si     -2.556791 -10.385524  -7.632430    0.000000   0.000000   0.000000
  43 O      -9.726856   6.695149   4.342168    0.000000   0.000000   0.000000
  44 O      -2.675264  11.907117  -0.933466    0.000000   0.000000   0.000000
  45 O      -4.975002   7.330378   5.780089    0.000000   0.000000   0.000000
  46 Si      3.877441  -9.281811  -0.087227    0.000000   0.000000   0.000000
  47 O      -1.722318   8.779170  -5.056168    0.000000   0.000000   0.000000
  48 H      -3.162255  10.497225   5.039961    0.000000   0.000000   0.000000
  49 H       9.220162   8.266647  -9.410024    0.000000   0.000000   0.000000
  50 Si      8.831897  -4.678179   6.830921    0.000000   0.000000   0.000000
  51 O      -6.229321   8.440006  -2.759366    0.000000   0.000000   0.000000
  52 O       1.697633  13.145584   1.307783    0.000000   0.000000   0.000000
  53 O       2.761225 -12.048365   0.906606    0.000000   0.000000   0.000000
  54 O       6.477851   9.158019  -3.324118    0.000000   0.000000   0.000000
  55 O     -11.408130  -3.280263  -4.870939    0.000000   0.000000   0.000000
  56 O       8.408389  17.355133  -5.038640    0.000000   0.000000   0.000000
  57 O       6.395923  -6.222006   8.108166    0.000000   0.000000   0.000000
  58 H      -4.491123 -19.826920  -8.641631    0.000000   0.000000   0.000000
  59 O      -1.385780  -0.934256  -4.625819    0.000000   0.000000   0.000000
  60 H       7.752684   4.484624   9.411236    0.000000   0.000000   0.000000
  61 H      -4.228620   1.717419   3.228294    0.000000   0.000000   0.000000
  62 O      -8.127432  11.364491   5.948293    0.000000   0.000000   0.000000
  63 O       8.032130   1.812070  -1.952852    0.000000   0.000000   0.000000
  64 H     -12.111468   9.897200  -5.648936    0.000000   0.000000   0.000000
  65 O      -7.825101  -6.449727  -2.875287    0.000000   0.000000   0.000000
  66 O      -2.262267  16.475579   1.561481    0.000000   0.000000   0.000000
  67 H      -1.934781   9.958304 -11.632422    0.000000   0.000000   0.000000
  68 O       3.843853  17.641158  -7.359376    0.000000   0.000000   0.000000
  69 H      12.831592  -5.039399   9.690993    0.000000   0.000000   0.000000
  70 H      14.373758   2.452827   0.157075    0.000000   0.000000   0.000000
  71 H     -15.899266   4.828510   2.510754    0.000000   0.000000   0.000000
  72 H       6.523976 -10.363138  -9.028255    0.000000   0.000000   0.000000
  73 H      13.486365  -9.986897   0.645410    0.000000   0.000000   0.000000
  74 O      -4.569388  -9.549016  -5.345337    0.000000   0.000000   0.000000
  75 O       2.084902  -7.068912   1.254923    0.000000   0.000000   0.000000
  76 H      -3.014668  -5.027606  -9.607110    0.000000   0.000000   0.000000
  77 H       8.341821  -3.190776  -6.651609    0.000000   0.000000   0.000000
  78 O       7.865645   8.450891  -8.229601    0.000000   0.000000   0.000000
  79 O       2.939416   8.929680  -7.065525    0.000000   0.000000   0.000000
  80 O      -8.749278   7.516443   9.331244    0.000000   0.000000   0.000000
  81 O      -1.872686 -14.193667   0.542393    0.000000   0.000000   0.000000
  82 H     -10.347809 -12.139837  -2.922934    0.000000   0.000000   0.000000
  83 O       7.985534  -1.664879   6.502492    0.000000   0.000000   0.000000
  84 O       3.285367  -5.052276  -6.365321    0.000000   0.000000   0.000000
  85 O       9.556002  -4.772548  -1.073421    0.000000   0.000000   0.000000
  86 O       2.750144  -9.784553   7.391712    0.000000   0.000000   0.000000
  87 H      -7.145418   3.257464  -6.275581    0.000000   0.000000   0.000000
  88 O      -4.249062   1.587801  -7.838517    0.000000   0.000000   0.000000
  89 O       6.627894   3.218163  -6.659847    0.000000   0.000000   0.000000
  90 H       1.326070  -3.870265   6.580918    0.000000   0.000000   0.000000
  91 O       0.268063  -9.173290  -7.078234    0.000000   0.000000   0.000000
  92 O     -10.953780   8.769372  -4.855288    0.000000   0.000000   0.000000
  93 O      -1.209040   9.195537 -10.170078    0.000000   0.000000   0.000000
  94 O      -8.642774 -11.537201  -2.924094    0.000000   0.000000   0.000000
  95 O       6.862000  -8.701740   0.629540    0.000000   0.000000   0.000000
  96 H       1.041085   3.272022  -7.637769    0.000000   0.000000   0.000000
  97 O     -10.097693   5.856212  -0.708794    0.000000   0.000000   0.000000
  98 O      -2.680891  -5.367664   2.000133    0.000000   0.000000   0.000000
  99 H       2.602818   3.952214   4.107216    0.000000   0.000000   0.000000
 100 H      -4.280549  -9.212353 -12.092448    0.000000   0.000000   0.000000
 101 O      11.359679  -4.930837   8.657928    0.000000   0.000000   0.000000
 102 H       3.256135  15.049491  -1.089645    0.000000   0.000000   0.000000
 103 O      -9.036419  -2.187204  -0.411588    0.000000   0.000000   0.000000
 104 O     -10.506023  -2.762642   4.506144    0.000000   0.000000   0.000000
 105 H     -12.924373  -2.962935  -5.792702    0.000000   0.000000   0.000000
 106 Si    -10.981785   4.854913   2.132003    0.000000   0.000000   0.000000
 107 O       0.009894   2.399498  -0.974890    0.000000   0.000000   0.000000
 108 O       0.849939  -2.434120  -0.271917    0.000000   0.000000   0.000000
 109 O      -6.386200  -2.082963  -4.858395    0.000000   0.000000   0.000000
 110 Si     -3.218535   9.158719  -2.313492    0.000000   0.000000   0.000000
 111 H       2.242289 -11.095454   6.238429    0.000000   0.000000   0.000000
 112 H       6.923311   4.836593  -7.458436    0.000000   0.000000   0.000000
 113 H       3.298299  -3.262895  -6.075289    0.000000   0.000000   0.000000
 114 Si      5.817608   9.911693  -6.299124    0.000000   0.000000   0.000000
 115 O      -1.972236   7.018594  -0.337386    0.000000   0.000000   0.000000
 116 O      -3.937919 -18.493701  -7.562117    0.000000   0.000000   0.000000
 117 O       3.874287   1.007017   5.205914    0.000000   0.000000   0.000000
 118 H       3.396369   7.696835   2.240607    0.000000   0.000000   0.000000
 119 O       8.768678   6.292660   0.190867    0.000000   0.000000   0.000000
 120 H     -11.476155  -3.689311   5.708829    0.000000   0.000000   0.000000
 121 H       0.422243 -14.896990   6.670276    0.000000   0.000000   0.000000
 122 Si     -8.735312  -3.435496  -3.263714    0.000000   0.000000   0.000000
 123 H      -3.780895  -6.728854   1.398189    0.000000   0.000000   0.000000
 124 H       0.469979  -4.210963  10.522032    0.000000   0.000000   0.000000
 125 O      -0.215348 -17.056272  -4.243536    0.000000   0.000000   0.000000
 126 Si      0.782188  -0.217131  -2.486418    0.000000   0.000000   0.000000
 127 O       3.584064   0.093213  -3.911288    0.000000   0.000000   0.000000
 128 O      -4.943546 -15.399852  -3.477546    0.000000   0.000000   0.000000
 129 O       2.295245 -17.185876   0.813551    0.000000   0.000000   0.000000
 130 Si      9.522024   3.252654   0.434367    0.000000   0.000000   0.000000
 131 H       2.616750  -0.338281   4.975205    0.000000   0.000000   0.000000
 132 O     -14.104382   4.784602   2.368567    0.000000   0.000000   0.000000
 133 O      -4.678487  -9.678270  -0.249940    0.000000   0.000000   0.000000
 134 O       0.813883 -14.485763   4.954665    0.000000   0.000000   0.000000
 135 O      12.600430   2.762723   0.232642    0.000000   0.000000   0.000000
 136 O      -2.445687 -13.526926  -7.347043    0.000000   0.000000   0.000000
 137 O       4.361370  -8.672689  12.167319    0.000000   0.000000   0.000000
 138 O       1.620183  -5.229727   9.553511    0.000000   0.000000   0.000000
 139 Si      3.126789  -8.165204  -6.206914    0.000000   0.000000   0.000000
 140 Si     -3.869549  -1.266333  -6.557924    0.000000   0.000000   0.000000
 141 H       1.055261 -17.330768  -2.974211    0.000000   0.000000   0.000000
 142 H       3.289010 -18.694143   0.776017    0.000000   0.000000   0.000000
 143 Si      9.540356  -7.058958   1.063597    0.000000   0.000000   0.000000
 144 Si      6.592691   0.888990  -4.579814    0.000000   0.000000   0.000000
 145 H       4.781536  -9.322698  13.794641    0.000000   0.000000   0.000000
 146 O       5.985402  13.033201  -6.456207    0.000000   0.000000   0.000000
 147 O      -3.143523   3.207824   2.941996    0.000000   0.000000   0.000000
 148 H       9.338863  -3.465732  -2.319513    0.000000   0.000000   0.000000
 149 O       8.391736   2.194372   3.163398    0.000000   0.000000   0.000000
 150 H      -3.299824   3.089696  -8.288715    0.000000   0.000000   0.000000
 151 H       2.758059  18.551309  -8.470087    0.000000   0.000000   0.000000
 152 H      -2.611122  18.240421   1.477523    0.000000   0.000000   0.000000
 153 H      -7.877626  13.098701   5.521157    0.000000   0.000000   0.000000
 154 Bi     -2.582123   1.405271   9.600185    0.000000   0.000000   0.000000


                                 NWChem DFT Module
                                 -----------------


                                   Bi@Quartz ecp



  Caching 1-el integrals 


         Total DFT energy =    -5018.372990868412
      One electron energy =   -55283.916523302963
           Coulomb energy =    26830.522888044216
    Exchange-Corr. energy =     -615.636983212081
 Nuclear repulsion energy =    24050.657627602417

    Dispersion correction =       -0.570103160881

 Numeric. integr. density =      795.001101307441

     Total iterative time =     80.5s


