 Euler-Maclaurian Coulomb
 Consistent 3/8+Simpson combinations at start/end
 New Mode for Coulomb Integral
 Extension of core to zero
 LDM version in phi
 Fifth-order quadrature in outwin
 Lebedev-Laikov Grid in lapw0


            ---------
:ITE001:  1. ITERATION
            ---------

:NATO :  323 INDEPENDENT AND  323 TOTAL ATOMS IN UNITCELL
       SUBSTANCE: TsOO@Q-G                                                    

       LATTICE                      = P   
:LAT  : LATTICE CONSTANTS= 36.98442 36.99249 28.34589    1.571    1.571    1.047
:VOL  : UNIT CELL VOLUME =   33590.29123
:POT  : POTENTIAL OPTION EX_PBE EC_PBE VX_PBE VC_PBE
       MODE OF CALCULATION IS       = RELA
       NON-SPINPOLARIZED CALCULATION
:IFFT  : FFT-parameters:  240  240  192 Factor: 1.00


   CONVERGENCE PARAMETER FOR PSEUDOCHARGE: NCON=  9
   MAXIMAL VALUE OF RMT(JATOM)*ABSK(NKK) : RK  =48.00000


:VKCOUL :  VK-COUL convergence: 0.725E-06
 Lebedev grid of          350
 Lebedev grid of          350
 Lebedev grid of          350
 Lebedev grid of          350
 Lebedev grid of          350
 Lebedev grid of          350
 Lebedev grid of          350
 Lebedev grid of          350
 Lebedev grid of          350
 Lebedev grid of          350
 Lebedev grid of          350
 Lebedev grid of          350
 Lebedev grid of          350
 Lebedev grid of          350
 Lebedev grid of          350
 Lebedev grid of          350
 Lebedev grid of          350
 Lebedev grid of          350
 Lebedev grid of          350
 Lebedev grid of          350
 Lebedev grid of          350
 Lebedev grid of          350
 Lebedev grid of          350
 Lebedev grid of          350
 Lebedev grid of          350
 Lebedev grid of          350
 Lebedev grid of          350
 Lebedev grid of          350
 Lebedev grid of          350
 Lebedev grid of          350
 Lebedev grid of          350
 Lebedev grid of          350
 Lebedev grid of          350
 Lebedev grid of          350
 Lebedev grid of          350
 Lebedev grid of          350
 Lebedev grid of          350
 Lebedev grid of          350
 Lebedev grid of          350
 Lebedev grid of          350
 Lebedev grid of          350
 Lebedev grid of          350
 Lebedev grid of          350
 Lebedev grid of          350
 Lebedev grid of          350
 Lebedev grid of          350
 Lebedev grid of          350
 Lebedev grid of          350
 Lebedev grid of          350
 Lebedev grid of          350
 Lebedev grid of          350
 Lebedev grid of          350
 Lebedev grid of          350
 Lebedev grid of          350
 Lebedev grid of          350
 Lebedev grid of          350
 Lebedev grid of          350
 Lebedev grid of          350
 Lebedev grid of          350
 Lebedev grid of          350
 Lebedev grid of          350
 Lebedev grid of          350
 Lebedev grid of          350
 Lebedev grid of          350
 Lebedev grid of          350
 Lebedev grid of          350
 Lebedev grid of          350
 Lebedev grid of          350
 Lebedev grid of          350
 Lebedev grid of          350
 Lebedev grid of          350
 Lebedev grid of          350
 Lebedev grid of          350
 Lebedev grid of          350
 Lebedev grid of          350
 Lebedev grid of          350
 Lebedev grid of          350
 Lebedev grid of          350
 Lebedev grid of          350
 Lebedev grid of          350
 Lebedev grid of          350
 Lebedev grid of          350
 Lebedev grid of          350
 Lebedev grid of          350
 Lebedev grid of          350
 Lebedev grid of          350
 Lebedev grid of          350
 Lebedev grid of          350
 Lebedev grid of          350
 Lebedev grid of          350
 Lebedev grid of          350
 Lebedev grid of          350
 Lebedev grid of          350
 Lebedev grid of          350
 Lebedev grid of          350
 Lebedev grid of          350
 Lebedev grid of          350
 Lebedev grid of          350
 Lebedev grid of          350
 Lebedev grid of          350
 Lebedev grid of          350
 Lebedev grid of          350
 Lebedev grid of          350
 Lebedev grid of          350
 Lebedev grid of          350
 Lebedev grid of          350
 Lebedev grid of          350
 Lebedev grid of          350
 Lebedev grid of          350
 Lebedev grid of          350
 Lebedev grid of          350
 Lebedev grid of          350
 Lebedev grid of          350
 Lebedev grid of          350
 Lebedev grid of          350
 Lebedev grid of          350
 Lebedev grid of          350
 Lebedev grid of          350
 Lebedev grid of          350
 Lebedev grid of          350
 Lebedev grid of          350
 Lebedev grid of          350
 Lebedev grid of          350
 Lebedev grid of          350
 Lebedev grid of          350
 Lebedev grid of          350
 Lebedev grid of          350
 Lebedev grid of          350
 Lebedev grid of          350
 Lebedev grid of          350
 Lebedev grid of          350
 Lebedev grid of          350
 Lebedev grid of          350
 Lebedev grid of          350
 Lebedev grid of          350
 Lebedev grid of          350
 Lebedev grid of          350
 Lebedev grid of          350
 Lebedev grid of          350
 Lebedev grid of          350
 Lebedev grid of          350
 Lebedev grid of          350
 Lebedev grid of          350
 Lebedev grid of          350
 Lebedev grid of          350
 Lebedev grid of          350
 Lebedev grid of          350
 Lebedev grid of          350
 Lebedev grid of          350
 Lebedev grid of          350
 Lebedev grid of          350
 Lebedev grid of          350
 Lebedev grid of          350
 Lebedev grid of          350
 Lebedev grid of          350
 Lebedev grid of          350
 Lebedev grid of          350
 Lebedev grid of          350
 Lebedev grid of          350
 Lebedev grid of          350
 Lebedev grid of          350
 Lebedev grid of          350
 Lebedev grid of          350
 Lebedev grid of          350
 Lebedev grid of          350
 Lebedev grid of          350
 Lebedev grid of          350
 Lebedev grid of          350
 Lebedev grid of          350
 Lebedev grid of          350
 Lebedev grid of          350
 Lebedev grid of          350
 Lebedev grid of          350
 Lebedev grid of          350
 Lebedev grid of          350
 Lebedev grid of          350
 Lebedev grid of          350
 Lebedev grid of          350
 Lebedev grid of          350
 Lebedev grid of          350
 Lebedev grid of          350
 Lebedev grid of          350
 Lebedev grid of          350
 Lebedev grid of          350
 Lebedev grid of          350
 Lebedev grid of          350
 Lebedev grid of          350
 Lebedev grid of          350
 Lebedev grid of          350
 Lebedev grid of          350
 Lebedev grid of          350
 Lebedev grid of          350
 Lebedev grid of          350
 Lebedev grid of          350
 Lebedev grid of          350
 Lebedev grid of          350
 Lebedev grid of          350
 Lebedev grid of          350
 Lebedev grid of          350
 Lebedev grid of          350
 Lebedev grid of          350
 Lebedev grid of          350
 Lebedev grid of          350
 Lebedev grid of          350
 Lebedev grid of          350
 Lebedev grid of          350
 Lebedev grid of          350
 Lebedev grid of          350
 Lebedev grid of          350
 Lebedev grid of          350
 Lebedev grid of          350
 Lebedev grid of          350
 Lebedev grid of          350
 Lebedev grid of          350
 Lebedev grid of          350
 Lebedev grid of          350
 Lebedev grid of          350
 Lebedev grid of          350
 Lebedev grid of          350
 Lebedev grid of          350
 Lebedev grid of          350
 Lebedev grid of          350
 Lebedev grid of          350
 Lebedev grid of          350
 Lebedev grid of          350
 Lebedev grid of          350
 Lebedev grid of          350
 Lebedev grid of          350
 Lebedev grid of          350
 Lebedev grid of          350
 Lebedev grid of          350
 Lebedev grid of          350
 Lebedev grid of          350
 Lebedev grid of          350
 Lebedev grid of          350
 Lebedev grid of          350
 Lebedev grid of          350
 Lebedev grid of          350
 Lebedev grid of          350
 Lebedev grid of          350
 Lebedev grid of          350
 Lebedev grid of          350
 Lebedev grid of          350
 Lebedev grid of          350
 Lebedev grid of          350
 Lebedev grid of          350
 Lebedev grid of          350
 Lebedev grid of          350
 Lebedev grid of          350
 Lebedev grid of          350
 Lebedev grid of          350
 Lebedev grid of          350
 Lebedev grid of          350
 Lebedev grid of          350
 Lebedev grid of          350
 Lebedev grid of          350
 Lebedev grid of          350
 Lebedev grid of          350
 Lebedev grid of          350
 Lebedev grid of          350
 Lebedev grid of          350
 Lebedev grid of          350
 Lebedev grid of          350
 Lebedev grid of          350
 Lebedev grid of          350
 Lebedev grid of          350
 Lebedev grid of          350
 Lebedev grid of          350
 Lebedev grid of          350
 Lebedev grid of          350
 Lebedev grid of          350
 Lebedev grid of          350
 Lebedev grid of          350
 Lebedev grid of          350
 Lebedev grid of          350
 Lebedev grid of          350
 Lebedev grid of          350
 Lebedev grid of          350
 Lebedev grid of          350
 Lebedev grid of          350
 Lebedev grid of          350
 Lebedev grid of          350
 Lebedev grid of          350
 Lebedev grid of          350
 Lebedev grid of          350
 Lebedev grid of          350
 Lebedev grid of          350
 Lebedev grid of          350
 Lebedev grid of          350
 Lebedev grid of          350
 Lebedev grid of          350
 Lebedev grid of          350
 Lebedev grid of          350
 Lebedev grid of          350
 Lebedev grid of          350
 Lebedev grid of          350
 Lebedev grid of          350
 Lebedev grid of          350
 Lebedev grid of          350
 Lebedev grid of          350
 Lebedev grid of          350
 Lebedev grid of          350
 Lebedev grid of          350
 Lebedev grid of          350
 Lebedev grid of          350
 Lebedev grid of          350
 Lebedev grid of          350
 Lebedev grid of          350
 Lebedev grid of          350
 Lebedev grid of          350
 Lebedev grid of          350
 Lebedev grid of          350
 Lebedev grid of          350
 Lebedev grid of          350
 Lebedev grid of          350
 Lebedev grid of          350
 Lebedev grid of          350
 Lebedev grid of          350
 Lebedev grid of          350
 Lebedev grid of          350
 Lebedev grid of          350
 Lebedev grid of          350
 Lebedev grid of          350
 :rho_min:   2.0000000000000000E-008   1.0000000000000001E-009
 :INFO  :V_xc-up average in interstital:          12  -8.5702668326328828E-003
 :INFO  :V_xc-dn average in interstital:          12  -8.5702668326328828E-003
:VCOUL001 ATOMNUMBER=  1 Si      VCOUL-ZERO = -0.64835E+00
:EFG001:                        EFG         =    -0.03400   *10**21  V / m**2
                               V20  TOT/SRF=     0.01228     0.02835
                               V22  TOT/SRF=    -0.01807    -0.03589
                               V22M TOT/SRF=     0.01935     0.03212
                               V21  TOT/SRF=    -0.00939    -0.02059
                               V21M TOT/SRF=    -0.01061    -0.02548

             -0.02516    0.01935   -0.00939       -0.03400    0.00000    0.00000
              0.01935    0.01098   -0.01061        0.00000    0.03063    0.00000
             -0.00939   -0.01061    0.01418        0.00000    0.00000    0.00337

         MAIN DIRECTIONS OF THE EFG   1.0000  0.5038  0.2261
                                     -0.4053  1.0000  0.8187
                                      0.1057 -0.9326  1.0000
:ANG001:  ANGLE WITH OLD X-AXIS =        28.9

:ETA001:                         ASYMM. ETA =     0.80196


:VCOUL002 ATOMNUMBER=  2 Si      VCOUL-ZERO = -0.64833E+00
:EFG002:                        EFG         =    -0.03401   *10**21  V / m**2
                               V20  TOT/SRF=     0.01210     0.02792
                               V22  TOT/SRF=    -0.01821    -0.03618
                               V22M TOT/SRF=     0.01937     0.03212
                               V21  TOT/SRF=    -0.00936    -0.02052
                               V21M TOT/SRF=    -0.01045    -0.02509

             -0.02520    0.01937   -0.00936       -0.03401    0.00000    0.00000
              0.01937    0.01122   -0.01045        0.00000    0.03051    0.00000
             -0.00936   -0.01045    0.01397        0.00000    0.00000    0.00350

         MAIN DIRECTIONS OF THE EFG   1.0000  0.5015  0.2182
                                     -0.4034  1.0000  0.8063
                                      0.1071 -0.9157  1.0000
:ANG002:  ANGLE WITH OLD X-AXIS =        28.7

:ETA002:                         ASYMM. ETA =     0.79398


:VCOUL003 ATOMNUMBER=  3 Si      VCOUL-ZERO = -0.63294E+00
:EFG003:                        EFG         =     0.05679   *10**21  V / m**2
                               V20  TOT/SRF=    -0.01499    -0.03141
                               V22  TOT/SRF=    -0.03764    -0.09539
                               V22M TOT/SRF=     0.00207    -0.00255
                               V21  TOT/SRF=     0.00530     0.00834
                               V21M TOT/SRF=    -0.02790    -0.07221

             -0.02899    0.00207    0.00530       -0.03412    0.00000    0.00000
              0.00207    0.04629   -0.02790        0.00000   -0.02268    0.00000
              0.00530   -0.02790   -0.01730        0.00000    0.00000    0.05679

         MAIN DIRECTIONS OF THE EFG   1.0000  0.9635  0.0009
                                     -0.3186  0.3756  1.0000
                                     -0.8439  1.0000 -0.3765
:ANG003:  ANGLE WITH OLD X-AXIS =        43.9

:ETA003:                         ASYMM. ETA =     0.20145


:VCOUL004 ATOMNUMBER=  4 Si      VCOUL-ZERO = -0.63288E+00
:EFG004:                        EFG         =     0.05655   *10**21  V / m**2
                               V20  TOT/SRF=    -0.01471    -0.03072
                               V22  TOT/SRF=    -0.03756    -0.09524
                               V22M TOT/SRF=     0.00190    -0.00288
                               V21  TOT/SRF=     0.00512     0.00794
                               V21M TOT/SRF=    -0.02778    -0.07194

             -0.02907    0.00190    0.00512       -0.03379    0.00000    0.00000
              0.00190    0.04605   -0.02778        0.00000   -0.02276    0.00000
              0.00512   -0.02778   -0.01699        0.00000    0.00000    0.05655

         MAIN DIRECTIONS OF THE EFG   1.0000  0.9255 -0.0004
                                     -0.3056  0.3782  1.0000
                                     -0.8099  1.0000 -0.3778
:ANG004:  ANGLE WITH OLD X-AXIS =        42.8

:ETA004:                         ASYMM. ETA =     0.19516


:VCOUL005 ATOMNUMBER=  5 Si      VCOUL-ZERO = -0.63290E+00
:EFG005:                        EFG         =     0.05673   *10**21  V / m**2
                               V20  TOT/SRF=    -0.01493    -0.03121
                               V22  TOT/SRF=    -0.03732    -0.09466
                               V22M TOT/SRF=     0.00192    -0.00276
                               V21  TOT/SRF=     0.00500     0.00767
                               V21M TOT/SRF=    -0.02825    -0.07313

             -0.02870    0.00192    0.00500       -0.03373    0.00000    0.00000
              0.00192    0.04594   -0.02825        0.00000   -0.02300    0.00000
              0.00500   -0.02825   -0.01724        0.00000    0.00000    0.05673

         MAIN DIRECTIONS OF THE EFG   1.0000  1.0000  0.0001
                                     -0.3353  0.3797  1.0000
                                     -0.8777  0.9943 -0.3819
:ANG005:  ANGLE WITH OLD X-AXIS =        45.0

:ETA005:                         ASYMM. ETA =     0.18905


:VCOUL006 ATOMNUMBER=  6 Si      VCOUL-ZERO = -0.63293E+00
:EFG006:                        EFG         =     0.05663   *10**21  V / m**2
                               V20  TOT/SRF=    -0.01472    -0.03079
                               V22  TOT/SRF=    -0.03736    -0.09476
                               V22M TOT/SRF=     0.00195    -0.00281
                               V21  TOT/SRF=     0.00521     0.00814
                               V21M TOT/SRF=    -0.02816    -0.07288

             -0.02886    0.00195    0.00521       -0.03390    0.00000    0.00000
              0.00195    0.04586   -0.02816        0.00000   -0.02273    0.00000
              0.00521   -0.02816   -0.01700        0.00000    0.00000    0.05663

         MAIN DIRECTIONS OF THE EFG   1.0000  0.9716 -0.0006
                                     -0.3237  0.3830  1.0000
                                     -0.8476  1.0000 -0.3825
:ANG006:  ANGLE WITH OLD X-AXIS =        44.2

:ETA006:                         ASYMM. ETA =     0.19730


:VCOUL007 ATOMNUMBER=  7 Si      VCOUL-ZERO = -0.63294E+00
:EFG007:                        EFG         =     0.05641   *10**21  V / m**2
                               V20  TOT/SRF=    -0.01502    -0.03150
                               V22  TOT/SRF=    -0.03739    -0.09484
                               V22M TOT/SRF=     0.00171    -0.00334
                               V21  TOT/SRF=     0.00510     0.00791
                               V21M TOT/SRF=    -0.02762    -0.07170

             -0.02872    0.00171    0.00510       -0.03360    0.00000    0.00000
              0.00171    0.04606   -0.02762        0.00000   -0.02280    0.00000
              0.00510   -0.02762   -0.01734        0.00000    0.00000    0.05641

         MAIN DIRECTIONS OF THE EFG   1.0000  0.9712 -0.0024
                                     -0.3168  0.3770  1.0000
                                     -0.8517  1.0000 -0.3747
:ANG007:  ANGLE WITH OLD X-AXIS =        44.2

:ETA007:                         ASYMM. ETA =     0.19152


:VCOUL008 ATOMNUMBER=  8 Si      VCOUL-ZERO = -0.63288E+00
:EFG008:                        EFG         =     0.05633   *10**21  V / m**2
                               V20  TOT/SRF=    -0.01491    -0.03126
                               V22  TOT/SRF=    -0.03724    -0.09447
                               V22M TOT/SRF=     0.00198    -0.00277
                               V21  TOT/SRF=     0.00497     0.00756
                               V21M TOT/SRF=    -0.02775    -0.07188

             -0.02863    0.00198    0.00497       -0.03353    0.00000    0.00000
              0.00198    0.04585   -0.02775        0.00000   -0.02279    0.00000
              0.00497   -0.02775   -0.01722        0.00000    0.00000    0.05633

         MAIN DIRECTIONS OF THE EFG   1.0000  0.9785  0.0012
                                     -0.3243  0.3761  1.0000
                                     -0.8566  1.0000 -0.3772
:ANG008:  ANGLE WITH OLD X-AXIS =        44.4

:ETA008:                         ASYMM. ETA =     0.19073


:VCOUL009 ATOMNUMBER=  9 Si      VCOUL-ZERO = -0.63287E+00
:EFG009:                        EFG         =     0.05638   *10**21  V / m**2
                               V20  TOT/SRF=    -0.01479    -0.03099
                               V22  TOT/SRF=    -0.03708    -0.09406
                               V22M TOT/SRF=     0.00184    -0.00305
                               V21  TOT/SRF=     0.00510     0.00782
                               V21M TOT/SRF=    -0.02811    -0.07280

             -0.02855    0.00184    0.00510       -0.03362    0.00000    0.00000
              0.00184    0.04562   -0.02811        0.00000   -0.02276    0.00000
              0.00510   -0.02811   -0.01707        0.00000    0.00000    0.05638

         MAIN DIRECTIONS OF THE EFG   1.0000  1.0000 -0.0013
                                     -0.3335  0.3831  1.0000
                                     -0.8745  0.9974 -0.3828
:ANG009:  ANGLE WITH OLD X-AXIS =        45.0

:ETA009:                         ASYMM. ETA =     0.19265


:VCOUL010 ATOMNUMBER= 10 Si      VCOUL-ZERO = -0.63327E+00
:EFG010:                        EFG         =     0.05654   *10**21  V / m**2
                               V20  TOT/SRF=    -0.01431    -0.03042
                               V22  TOT/SRF=    -0.03723    -0.09454
                               V22M TOT/SRF=     0.00226    -0.00232
                               V21  TOT/SRF=     0.00432     0.00667
                               V21M TOT/SRF=    -0.02840    -0.07296

             -0.02897    0.00226    0.00432       -0.03316    0.00000    0.00000
              0.00226    0.04550   -0.02840        0.00000   -0.02338    0.00000
              0.00432   -0.02840   -0.01652        0.00000    0.00000    0.05654

         MAIN DIRECTIONS OF THE EFG   1.0000  0.9254  0.0068
                                     -0.3189  0.3820  1.0000
                                     -0.8036  1.0000 -0.3883
:ANG010:  ANGLE WITH OLD X-AXIS =        42.8

:ETA010:                         ASYMM. ETA =     0.17310


:VCOUL011 ATOMNUMBER= 11 Si      VCOUL-ZERO = -0.63286E+00
:EFG011:                        EFG         =     0.05675   *10**21  V / m**2
                               V20  TOT/SRF=    -0.01519    -0.03192
                               V22  TOT/SRF=    -0.03743    -0.09485
                               V22M TOT/SRF=     0.00198    -0.00283
                               V21  TOT/SRF=     0.00513     0.00789
                               V21M TOT/SRF=    -0.02800    -0.07248

             -0.02866    0.00198    0.00513       -0.03388    0.00000    0.00000
              0.00198    0.04620   -0.02800        0.00000   -0.02287    0.00000
              0.00513   -0.02800   -0.01754        0.00000    0.00000    0.05675

         MAIN DIRECTIONS OF THE EFG   1.0000  1.0000  0.0005
                                     -0.3355  0.3706  1.0000
                                     -0.8889  0.9851 -0.3768
:ANG011:  ANGLE WITH OLD X-AXIS =        45.0

:ETA011:                         ASYMM. ETA =     0.19408


:VCOUL012 ATOMNUMBER= 12 Si      VCOUL-ZERO = -0.63283E+00
:EFG012:                        EFG         =     0.05648   *10**21  V / m**2
                               V20  TOT/SRF=    -0.01504    -0.03157
                               V22  TOT/SRF=    -0.03698    -0.09378
                               V22M TOT/SRF=     0.00202    -0.00272
                               V21  TOT/SRF=     0.00508     0.00779
                               V21M TOT/SRF=    -0.02827    -0.07310

             -0.02830    0.00202    0.00508       -0.03371    0.00000    0.00000
              0.00202    0.04566   -0.02827        0.00000   -0.02277    0.00000
              0.00508   -0.02827   -0.01736        0.00000    0.00000    0.05648

         MAIN DIRECTIONS OF THE EFG   1.0000  1.0000  0.0009
                                     -0.3545  0.3605  1.0000
                                     -0.9237  0.9443 -0.3827
:ANG012:  ANGLE WITH OLD X-AXIS =        45.0

:ETA012:                         ASYMM. ETA =     0.19364


:VCOUL013 ATOMNUMBER= 13 Si      VCOUL-ZERO = -0.63288E+00
:EFG013:                        EFG         =     0.05657   *10**21  V / m**2
                               V20  TOT/SRF=    -0.01496    -0.03132
                               V22  TOT/SRF=    -0.03732    -0.09469
                               V22M TOT/SRF=     0.00199    -0.00268
                               V21  TOT/SRF=     0.00516     0.00803
                               V21M TOT/SRF=    -0.02798    -0.07249

             -0.02868    0.00199    0.00516       -0.03383    0.00000    0.00000
              0.00199    0.04596   -0.02798        0.00000   -0.02273    0.00000
              0.00516   -0.02798   -0.01728        0.00000    0.00000    0.05657

         MAIN DIRECTIONS OF THE EFG   1.0000  0.9950  0.0004
                                     -0.3301  0.3786  1.0000
                                     -0.8700  1.0000 -0.3789
:ANG013:  ANGLE WITH OLD X-AXIS =        44.9

:ETA013:                         ASYMM. ETA =     0.19619


:VCOUL014 ATOMNUMBER= 14 Si      VCOUL-ZERO = -0.63319E+00
:EFG014:                        EFG         =     0.05612   *10**21  V / m**2
                               V20  TOT/SRF=    -0.01488    -0.03153
                               V22  TOT/SRF=    -0.03716    -0.09441
                               V22M TOT/SRF=     0.00214    -0.00247
                               V21  TOT/SRF=     0.00546     0.00815
                               V21M TOT/SRF=    -0.02757    -0.07172

             -0.02857    0.00214    0.00546       -0.03395    0.00000    0.00000
              0.00214    0.04575   -0.02757        0.00000   -0.02218    0.00000
              0.00546   -0.02757   -0.01719        0.00000    0.00000    0.05612

         MAIN DIRECTIONS OF THE EFG   1.0000  0.9800  0.0010
                                     -0.3238  0.3751  1.0000
                                     -0.8585  1.0000 -0.3760
:ANG014:  ANGLE WITH OLD X-AXIS =        44.4

:ETA014:                         ASYMM. ETA =     0.20969


:VCOUL015 ATOMNUMBER= 15 Si      VCOUL-ZERO = -0.63283E+00
:EFG015:                        EFG         =     0.05672   *10**21  V / m**2
                               V20  TOT/SRF=    -0.01514    -0.03182
                               V22  TOT/SRF=    -0.03717    -0.09431
                               V22M TOT/SRF=     0.00185    -0.00300
                               V21  TOT/SRF=     0.00505     0.00772
                               V21M TOT/SRF=    -0.02832    -0.07335

             -0.02843    0.00185    0.00505       -0.03374    0.00000    0.00000
              0.00185    0.04591   -0.02832        0.00000   -0.02298    0.00000
              0.00505   -0.02832   -0.01749        0.00000    0.00000    0.05672

         MAIN DIRECTIONS OF THE EFG   1.0000  1.0000 -0.0009
                                     -0.3515  0.3618  1.0000
                                     -0.9232  0.9454 -0.3817
:ANG015:  ANGLE WITH OLD X-AXIS =        45.0

:ETA015:                         ASYMM. ETA =     0.18957


:VCOUL016 ATOMNUMBER= 16 Si      VCOUL-ZERO = -0.63284E+00
:EFG016:                        EFG         =     0.05664   *10**21  V / m**2
                               V20  TOT/SRF=    -0.01530    -0.03221
                               V22  TOT/SRF=    -0.03715    -0.09427
                               V22M TOT/SRF=     0.00192    -0.00278
                               V21  TOT/SRF=     0.00491     0.00741
                               V21M TOT/SRF=    -0.02813    -0.07286

             -0.02832    0.00192    0.00491       -0.03359    0.00000    0.00000
              0.00192    0.04599   -0.02813        0.00000   -0.02305    0.00000
              0.00491   -0.02813   -0.01767        0.00000    0.00000    0.05664

         MAIN DIRECTIONS OF THE EFG   1.0000  1.0000  0.0008
                                     -0.3549  0.3531  1.0000
                                     -0.9355  0.9350 -0.3785
:ANG016:  ANGLE WITH OLD X-AXIS =        45.0

:ETA016:                         ASYMM. ETA =     0.18603


:VCOUL017 ATOMNUMBER= 17 Si      VCOUL-ZERO = -0.63285E+00
:EFG017:                        EFG         =     0.05641   *10**21  V / m**2
                               V20  TOT/SRF=    -0.01513    -0.03175
                               V22  TOT/SRF=    -0.03718    -0.09425
                               V22M TOT/SRF=     0.00187    -0.00300
                               V21  TOT/SRF=     0.00503     0.00769
                               V21M TOT/SRF=    -0.02785    -0.07213

             -0.02844    0.00187    0.00503       -0.03358    0.00000    0.00000
              0.00187    0.04591   -0.02785        0.00000   -0.02284    0.00000
              0.00503   -0.02785   -0.01747        0.00000    0.00000    0.05641

         MAIN DIRECTIONS OF THE EFG   1.0000  1.0000 -0.0004
                                     -0.3374  0.3689  1.0000
                                     -0.8958  0.9774 -0.3770
:ANG017:  ANGLE WITH OLD X-AXIS =        45.0

:ETA017:                         ASYMM. ETA =     0.19040


:VCOUL018 ATOMNUMBER= 18 Si      VCOUL-ZERO = -0.63291E+00
:EFG018:                        EFG         =     0.05679   *10**21  V / m**2
                               V20  TOT/SRF=    -0.01516    -0.03183
                               V22  TOT/SRF=    -0.03725    -0.09445
                               V22M TOT/SRF=     0.00188    -0.00291
                               V21  TOT/SRF=     0.00503     0.00768
                               V21M TOT/SRF=    -0.02831    -0.07325

             -0.02850    0.00188    0.00503       -0.03377    0.00000    0.00000
              0.00188    0.04600   -0.02831        0.00000   -0.02302    0.00000
              0.00503   -0.02831   -0.01751        0.00000    0.00000    0.05679

         MAIN DIRECTIONS OF THE EFG   1.0000  1.0000 -0.0005
                                     -0.3489  0.3634  1.0000
                                     -0.9168  0.9524 -0.3810
:ANG018:  ANGLE WITH OLD X-AXIS =        45.0

:ETA018:                         ASYMM. ETA =     0.18921


:VCOUL019 ATOMNUMBER= 19 O       VCOUL-ZERO = -0.15959E+01
:EFG019:                        EFG         =     2.00774   *10**21  V / m**2
                               V20  TOT/SRF=     0.03021     0.03361
                               V22  TOT/SRF=     0.39908     0.44287
                               V22M TOT/SRF=    -0.90597    -1.00572
                               V21  TOT/SRF=    -1.01509    -1.12657
                               V21M TOT/SRF=     1.03775     1.15198

              0.38163   -0.90597   -1.01509        2.00774    0.00000    0.00000
             -0.90597   -0.41652    1.03775        0.00000   -0.74885    0.00000
             -1.01509    1.03775    0.03489        0.00000    0.00000   -1.25889

         MAIN DIRECTIONS OF THE EFG   1.0000  1.0000  0.1087
                                     -0.7666  0.4206  1.0000
                                     -0.9178  0.7383 -0.7168
:ANG019:  ANGLE WITH OLD X-AXIS =        45.2

:ETA019:                         ASYMM. ETA =     0.25403


:VCOUL020 ATOMNUMBER= 20 O       VCOUL-ZERO = -0.15959E+01
:EFG020:                        EFG         =     2.00918   *10**21  V / m**2
                               V20  TOT/SRF=     0.03158     0.03513
                               V22  TOT/SRF=     0.39957     0.44341
                               V22M TOT/SRF=    -0.90651    -1.00632
                               V21  TOT/SRF=    -1.01648    -1.12812
                               V21M TOT/SRF=     1.03763     1.15185

              0.38133   -0.90651   -1.01648        2.00918    0.00000    0.00000
             -0.90651   -0.41780    1.03763        0.00000   -0.75016    0.00000
             -1.01648    1.03763    0.03647        0.00000    0.00000   -1.25902

         MAIN DIRECTIONS OF THE EFG   1.0000  1.0000  0.1096
                                     -0.7661  0.4191  1.0000
                                     -0.9182  0.7394 -0.7150
:ANG020:  ANGLE WITH OLD X-AXIS =        45.2

:ETA020:                         ASYMM. ETA =     0.25327


:VCOUL021 ATOMNUMBER= 21 O       VCOUL-ZERO = -0.15959E+01
:EFG021:                        EFG         =     2.00769   *10**21  V / m**2
                               V20  TOT/SRF=     0.03146     0.03499
                               V22  TOT/SRF=     0.39947     0.44331
                               V22M TOT/SRF=    -0.90587    -1.00562
                               V21  TOT/SRF=    -1.01525    -1.12676
                               V21M TOT/SRF=     1.03740     1.15159

              0.38131   -0.90587   -1.01525        2.00769    0.00000    0.00000
             -0.90587   -0.41764    1.03740        0.00000   -0.74892    0.00000
             -1.01525    1.03740    0.03632        0.00000    0.00000   -1.25877

         MAIN DIRECTIONS OF THE EFG   1.0000  1.0000  0.1097
                                     -0.7663  0.4190  1.0000
                                     -0.9182  0.7394 -0.7150
:ANG021:  ANGLE WITH OLD X-AXIS =        45.2

:ETA021:                         ASYMM. ETA =     0.25395


:VCOUL022 ATOMNUMBER= 22 O       VCOUL-ZERO = -0.15958E+01
:EFG022:                        EFG         =     2.00669   *10**21  V / m**2
                               V20  TOT/SRF=     0.03285     0.03653
                               V22  TOT/SRF=     0.40017     0.44409
                               V22M TOT/SRF=    -0.90412    -1.00368
                               V21  TOT/SRF=    -1.01553    -1.12708
                               V21M TOT/SRF=     1.03695     1.15110

              0.38121   -0.90412   -1.01553        2.00669    0.00000    0.00000
             -0.90412   -0.41913    1.03695        0.00000   -0.74817    0.00000
             -1.01553    1.03695    0.03793        0.00000    0.00000   -1.25852

         MAIN DIRECTIONS OF THE EFG   1.0000  1.0000  0.1088
                                     -0.7656  0.4192  1.0000
                                     -0.9190  0.7389 -0.7146
:ANG022:  ANGLE WITH OLD X-AXIS =        45.2

:ETA022:                         ASYMM. ETA =     0.25432


:VCOUL023 ATOMNUMBER= 23 O       VCOUL-ZERO = -0.15960E+01
:EFG023:                        EFG         =     2.00950   *10**21  V / m**2
                               V20  TOT/SRF=     0.03089     0.03435
                               V22  TOT/SRF=     0.39862     0.44236
                               V22M TOT/SRF=    -0.90607    -1.00583
                               V21  TOT/SRF=    -1.01669    -1.12834
                               V21M TOT/SRF=     1.03870     1.15303

              0.38078   -0.90607   -1.01669        2.00950    0.00000    0.00000
             -0.90607   -0.41645    1.03870        0.00000   -0.75017    0.00000
             -1.01669    1.03870    0.03567        0.00000    0.00000   -1.25933

         MAIN DIRECTIONS OF THE EFG   1.0000  1.0000  0.1076
                                     -0.7668  0.4212  1.0000
                                     -0.9186  0.7370 -0.7176
:ANG023:  ANGLE WITH OLD X-AXIS =        45.2

:ETA023:                         ASYMM. ETA =     0.25338


:VCOUL024 ATOMNUMBER= 24 O       VCOUL-ZERO = -0.15959E+01
:EFG024:                        EFG         =     2.00966   *10**21  V / m**2
                               V20  TOT/SRF=     0.03108     0.03457
                               V22  TOT/SRF=     0.39888     0.44265
                               V22M TOT/SRF=    -0.90641    -1.00620
                               V21  TOT/SRF=    -1.01685    -1.12852
                               V21M TOT/SRF=     1.03832     1.15261

              0.38094   -0.90641   -1.01685        2.00966    0.00000    0.00000
             -0.90641   -0.41683    1.03832        0.00000   -0.75048    0.00000
             -1.01685    1.03832    0.03589        0.00000    0.00000   -1.25918

         MAIN DIRECTIONS OF THE EFG   1.0000  1.0000  0.1083
                                     -0.7666  0.4205  1.0000
                                     -0.9184  0.7378 -0.7167
:ANG024:  ANGLE WITH OLD X-AXIS =        45.2

:ETA024:                         ASYMM. ETA =     0.25312


:VCOUL025 ATOMNUMBER= 25 O       VCOUL-ZERO = -0.15960E+01
:EFG025:                        EFG         =     2.00998   *10**21  V / m**2
                               V20  TOT/SRF=     0.03146     0.03499
                               V22  TOT/SRF=     0.39936     0.44318
                               V22M TOT/SRF=    -0.90667    -1.00648
                               V21  TOT/SRF=    -1.01710    -1.12880
                               V21M TOT/SRF=     1.03811     1.15237

              0.38120   -0.90667   -1.01710        2.00998    0.00000    0.00000
             -0.90667   -0.41752    1.03811        0.00000   -0.75069    0.00000
             -1.01710    1.03811    0.03633        0.00000    0.00000   -1.25929

         MAIN DIRECTIONS OF THE EFG   1.0000  1.0000  0.1089
                                     -0.7662  0.4198  1.0000
                                     -0.9184  0.7387 -0.7157
:ANG025:  ANGLE WITH OLD X-AXIS =        45.2

:ETA025:                         ASYMM. ETA =     0.25304


:VCOUL026 ATOMNUMBER= 26 O       VCOUL-ZERO = -0.15960E+01
:EFG026:                        EFG         =     2.00930   *10**21  V / m**2
                               V20  TOT/SRF=     0.03324     0.03696
                               V22  TOT/SRF=     0.40033     0.44426
                               V22M TOT/SRF=    -0.90469    -1.00430
                               V21  TOT/SRF=    -1.01788    -1.12966
                               V21M TOT/SRF=     1.03771     1.15193

              0.38114   -0.90469   -1.01788        2.00930    0.00000    0.00000
             -0.90469   -0.41952    1.03771        0.00000   -0.75012    0.00000
             -1.01788    1.03771    0.03838        0.00000    0.00000   -1.25918

         MAIN DIRECTIONS OF THE EFG   1.0000  1.0000  0.1077
                                     -0.7653  0.4201  1.0000
                                     -0.9194  0.7380 -0.7153
:ANG026:  ANGLE WITH OLD X-AXIS =        45.2

:ETA026:                         ASYMM. ETA =     0.25335


:VCOUL027 ATOMNUMBER= 27 O       VCOUL-ZERO = -0.15959E+01
:EFG027:                        EFG         =     2.00863   *10**21  V / m**2
                               V20  TOT/SRF=     0.03080     0.03426
                               V22  TOT/SRF=     0.39948     0.44333
                               V22M TOT/SRF=    -0.90566    -1.00537
                               V21  TOT/SRF=    -1.01650    -1.12814
                               V21M TOT/SRF=     1.03765     1.15187

              0.38170   -0.90566   -1.01650        2.00863    0.00000    0.00000
             -0.90566   -0.41727    1.03765        0.00000   -0.74976    0.00000
             -1.01650    1.03765    0.03557        0.00000    0.00000   -1.25886

         MAIN DIRECTIONS OF THE EFG   1.0000  1.0000  0.1078
                                     -0.7660  0.4212  1.0000
                                     -0.9180  0.7378 -0.7170
:ANG027:  ANGLE WITH OLD X-AXIS =        45.2

:ETA027:                         ASYMM. ETA =     0.25346


:VCOUL028 ATOMNUMBER= 28 O       VCOUL-ZERO = -0.15959E+01
:EFG028:                        EFG         =     2.00909   *10**21  V / m**2
                               V20  TOT/SRF=     0.03045     0.03387
                               V22  TOT/SRF=     0.39938     0.44320
                               V22M TOT/SRF=    -0.90644    -1.00624
                               V21  TOT/SRF=    -1.01645    -1.12808
                               V21M TOT/SRF=     1.03770     1.15193

              0.38180   -0.90644   -1.01645        2.00909    0.00000    0.00000
             -0.90644   -0.41696    1.03770        0.00000   -0.75013    0.00000
             -1.01645    1.03770    0.03516        0.00000    0.00000   -1.25897

         MAIN DIRECTIONS OF THE EFG   1.0000  1.0000  0.1085
                                     -0.7662  0.4207  1.0000
                                     -0.9177  0.7384 -0.7166
:ANG028:  ANGLE WITH OLD X-AXIS =        45.2

:ETA028:                         ASYMM. ETA =     0.25327


:VCOUL029 ATOMNUMBER= 29 O       VCOUL-ZERO = -0.15959E+01
:EFG029:                        EFG         =     2.00964   *10**21  V / m**2
                               V20  TOT/SRF=     0.03133     0.03485
                               V22  TOT/SRF=     0.39974     0.44361
                               V22M TOT/SRF=    -0.90738    -1.00728
                               V21  TOT/SRF=    -1.01647    -1.12811
                               V21M TOT/SRF=     1.03745     1.15165

              0.38165   -0.90738   -1.01647        2.00964    0.00000    0.00000
             -0.90738   -0.41783    1.03745        0.00000   -0.75054    0.00000
             -1.01647    1.03745    0.03618        0.00000    0.00000   -1.25909

         MAIN DIRECTIONS OF THE EFG   1.0000  1.0000  0.1106
                                     -0.7660  0.4183  1.0000
                                     -0.9178  0.7405 -0.7142
:ANG029:  ANGLE WITH OLD X-AXIS =        45.2

:ETA029:                         ASYMM. ETA =     0.25306


:VCOUL030 ATOMNUMBER= 30 O       VCOUL-ZERO = -0.15959E+01
:EFG030:                        EFG         =     2.00884   *10**21  V / m**2
                               V20  TOT/SRF=     0.03175     0.03531
                               V22  TOT/SRF=     0.40119     0.44522
                               V22M TOT/SRF=    -0.90459    -1.00418
                               V21  TOT/SRF=    -1.01769    -1.12946
                               V21M TOT/SRF=     1.03706     1.15122

              0.38286   -0.90459   -1.01769        2.00884    0.00000    0.00000
             -0.90459   -0.41952    1.03706        0.00000   -0.74969    0.00000
             -1.01769    1.03706    0.03667        0.00000    0.00000   -1.25914

         MAIN DIRECTIONS OF THE EFG   1.0000  1.0000  0.1069
                                     -0.7646  0.4217  1.0000
                                     -0.9181  0.7380 -0.7163
:ANG030:  ANGLE WITH OLD X-AXIS =        45.2

:ETA030:                         ASYMM. ETA =     0.25361


:VCOUL031 ATOMNUMBER= 31 O       VCOUL-ZERO = -0.15959E+01
:EFG031:                        EFG         =     2.00737   *10**21  V / m**2
                               V20  TOT/SRF=     0.02944     0.03275
                               V22  TOT/SRF=     0.39836     0.44207
                               V22M TOT/SRF=    -0.90574    -1.00547
                               V21  TOT/SRF=    -1.01458    -1.12601
                               V21M TOT/SRF=     1.03828     1.15257

              0.38136   -0.90574   -1.01458        2.00737    0.00000    0.00000
             -0.90574   -0.41536    1.03828        0.00000   -0.74843    0.00000
             -1.01458    1.03828    0.03400        0.00000    0.00000   -1.25894

         MAIN DIRECTIONS OF THE EFG   1.0000  1.0000  0.1078
                                     -0.7672  0.4217  1.0000
                                     -0.9178  0.7371 -0.7184
:ANG031:  ANGLE WITH OLD X-AXIS =        45.2

:ETA031:                         ASYMM. ETA =     0.25431


:VCOUL032 ATOMNUMBER= 32 O       VCOUL-ZERO = -0.15960E+01
:EFG032:                        EFG         =     2.00941   *10**21  V / m**2
                               V20  TOT/SRF=     0.03012     0.03350
                               V22  TOT/SRF=     0.39902     0.44281
                               V22M TOT/SRF=    -0.90695    -1.00680
                               V21  TOT/SRF=    -1.01616    -1.12775
                               V21M TOT/SRF=     1.03819     1.15246

              0.38164   -0.90695   -1.01616        2.00941    0.00000    0.00000
             -0.90695   -0.41641    1.03819        0.00000   -0.75011    0.00000
             -1.01616    1.03819    0.03478        0.00000    0.00000   -1.25930

         MAIN DIRECTIONS OF THE EFG   1.0000  1.0000  0.1088
                                     -0.7666  0.4205  1.0000
                                     -0.9177  0.7384 -0.7168
:ANG032:  ANGLE WITH OLD X-AXIS =        45.2

:ETA032:                         ASYMM. ETA =     0.25340


:VCOUL033 ATOMNUMBER= 33 O       VCOUL-ZERO = -0.15959E+01
:EFG033:                        EFG         =     2.00713   *10**21  V / m**2
                               V20  TOT/SRF=     0.03035     0.03375
                               V22  TOT/SRF=     0.39913     0.44293
                               V22M TOT/SRF=    -0.90630    -1.00609
                               V21  TOT/SRF=    -1.01415    -1.12553
                               V21M TOT/SRF=     1.03756     1.15177

              0.38161   -0.90630   -1.01415        2.00713    0.00000    0.00000
             -0.90630   -0.41665    1.03756        0.00000   -0.74825    0.00000
             -1.01415    1.03756    0.03504        0.00000    0.00000   -1.25888

         MAIN DIRECTIONS OF THE EFG   1.0000  1.0000  0.1101
                                     -0.7667  0.4191  1.0000
                                     -0.9176  0.7395 -0.7156
:ANG033:  ANGLE WITH OLD X-AXIS =        45.2

:ETA033:                         ASYMM. ETA =     0.25441


:VCOUL034 ATOMNUMBER= 34 O       VCOUL-ZERO = -0.15959E+01
:EFG034:                        EFG         =     2.00753   *10**21  V / m**2
                               V20  TOT/SRF=     0.03092     0.03439
                               V22  TOT/SRF=     0.40021     0.44413
                               V22M TOT/SRF=    -0.90507    -1.00472
                               V21  TOT/SRF=    -1.01563    -1.12717
                               V21M TOT/SRF=     1.03732     1.15150

              0.38236   -0.90507   -1.01563        2.00753    0.00000    0.00000
             -0.90507   -0.41806    1.03732        0.00000   -0.74851    0.00000
             -1.01563    1.03732    0.03570        0.00000    0.00000   -1.25903

         MAIN DIRECTIONS OF THE EFG   1.0000  1.0000  0.1082
                                     -0.7657  0.4208  1.0000
                                     -0.9179  0.7385 -0.7163
:ANG034:  ANGLE WITH OLD X-AXIS =        45.2

:ETA034:                         ASYMM. ETA =     0.25430


:VCOUL035 ATOMNUMBER= 35 O       VCOUL-ZERO = -0.15640E+01
:EFG035:                        EFG         =     1.64517   *10**21  V / m**2
                               V20  TOT/SRF=    -0.15998    -0.17714
                               V22  TOT/SRF=    -0.76216    -0.84661
                               V22M TOT/SRF=     0.22033     0.24646
                               V21  TOT/SRF=    -0.49484    -0.55179
                               V21M TOT/SRF=    -1.10487    -1.22908

             -0.66980    0.22033   -0.49484       -0.52146    0.00000    0.00000
              0.22033    0.85452   -1.10487        0.00000   -1.12372    0.00000
             -0.49484   -1.10487   -0.18473        0.00000    0.00000    1.64517

         MAIN DIRECTIONS OF THE EFG   1.0000  0.8659  0.2380
                                     -0.6239  0.4621  1.0000
                                     -0.5776  1.0000 -0.6681
:ANG035:  ANGLE WITH OLD X-AXIS =        41.9

:ETA035:                         ASYMM. ETA =     0.36608


:VCOUL036 ATOMNUMBER= 36 O       VCOUL-ZERO = -0.15640E+01
:EFG036:                        EFG         =     1.64480   *10**21  V / m**2
                               V20  TOT/SRF=    -0.15888    -0.17591
                               V22  TOT/SRF=    -0.76292    -0.84745
                               V22M TOT/SRF=     0.21916     0.24516
                               V21  TOT/SRF=    -0.49457    -0.55150
                               V21M TOT/SRF=    -1.10446    -1.22864

             -0.67119    0.21916   -0.49457       -0.52115    0.00000    0.00000
              0.21916    0.85465   -1.10446        0.00000   -1.12364    0.00000
             -0.49457   -1.10446   -0.18346        0.00000    0.00000    1.64480

         MAIN DIRECTIONS OF THE EFG   1.0000  0.8693  0.2373
                                     -0.6253  0.4620  1.0000
                                     -0.5804  1.0000 -0.6683
:ANG036:  ANGLE WITH OLD X-AXIS =        42.0

:ETA036:                         ASYMM. ETA =     0.36630


:VCOUL037 ATOMNUMBER= 37 O       VCOUL-ZERO = -0.15640E+01
:EFG037:                        EFG         =     1.64381   *10**21  V / m**2
                               V20  TOT/SRF=    -0.15826    -0.17522
                               V22  TOT/SRF=    -0.76227    -0.84673
                               V22M TOT/SRF=     0.21870     0.24464
                               V21  TOT/SRF=    -0.49507    -0.55205
                               V21M TOT/SRF=    -1.10391    -1.22802

             -0.67090    0.21870   -0.49507       -0.52017    0.00000    0.00000
              0.21870    0.85364   -1.10391        0.00000   -1.12364    0.00000
             -0.49507   -1.10391   -0.18274        0.00000    0.00000    1.64381

         MAIN DIRECTIONS OF THE EFG   1.0000  0.8703  0.2375
                                     -0.6261  0.4620  1.0000
                                     -0.5810  1.0000 -0.6687
:ANG037:  ANGLE WITH OLD X-AXIS =        42.1

:ETA037:                         ASYMM. ETA =     0.36712


:VCOUL038 ATOMNUMBER= 38 O       VCOUL-ZERO = -0.15642E+01
:EFG038:                        EFG         =     1.64617   *10**21  V / m**2
                               V20  TOT/SRF=    -0.15928    -0.17636
                               V22  TOT/SRF=    -0.76199    -0.84641
                               V22M TOT/SRF=     0.22059     0.24675
                               V21  TOT/SRF=    -0.49506    -0.55203
                               V21M TOT/SRF=    -1.10601    -1.23034

             -0.67003    0.22059   -0.49506       -0.52209    0.00000    0.00000
              0.22059    0.85395   -1.10601        0.00000   -1.12408    0.00000
             -0.49506   -1.10601   -0.18392        0.00000    0.00000    1.64617

         MAIN DIRECTIONS OF THE EFG   1.0000  0.8656  0.2382
                                     -0.6240  0.4626  1.0000
                                     -0.5769  1.0000 -0.6688
:ANG038:  ANGLE WITH OLD X-AXIS =        41.9

:ETA038:                         ASYMM. ETA =     0.36569


:VCOUL039 ATOMNUMBER= 39 O       VCOUL-ZERO = -0.15640E+01
:EFG039:                        EFG         =     1.64504   *10**21  V / m**2
                               V20  TOT/SRF=    -0.15818    -0.17513
                               V22  TOT/SRF=    -0.76323    -0.84780
                               V22M TOT/SRF=     0.21874     0.24470
                               V21  TOT/SRF=    -0.49433    -0.55122
                               V21M TOT/SRF=    -1.10477    -1.22898

             -0.67191    0.21874   -0.49433       -0.52142    0.00000    0.00000
              0.21874    0.85456   -1.10477        0.00000   -1.12362    0.00000
             -0.49433   -1.10477   -0.18265        0.00000    0.00000    1.64504

         MAIN DIRECTIONS OF THE EFG   1.0000  0.8705  0.2371
                                     -0.6257  0.4622  1.0000
                                     -0.5813  1.0000 -0.6686
:ANG039:  ANGLE WITH OLD X-AXIS =        42.1

:ETA039:                         ASYMM. ETA =     0.36606


:VCOUL040 ATOMNUMBER= 40 O       VCOUL-ZERO = -0.15639E+01
:EFG040:                        EFG         =     1.64447   *10**21  V / m**2
                               V20  TOT/SRF=    -0.15760    -0.17448
                               V22  TOT/SRF=    -0.76386    -0.84850
                               V22M TOT/SRF=     0.21792     0.24378
                               V21  TOT/SRF=    -0.49402    -0.55089
                               V21M TOT/SRF=    -1.10410    -1.22824

             -0.67287    0.21792   -0.49402       -0.52111    0.00000    0.00000
              0.21792    0.85485   -1.10410        0.00000   -1.12337    0.00000
             -0.49402   -1.10410   -0.18198        0.00000    0.00000    1.64447

         MAIN DIRECTIONS OF THE EFG   1.0000  0.8732  0.2366
                                     -0.6267  0.4619  1.0000
                                     -0.5837  1.0000 -0.6685
:ANG040:  ANGLE WITH OLD X-AXIS =        42.1

:ETA040:                         ASYMM. ETA =     0.36623


:VCOUL041 ATOMNUMBER= 41 O       VCOUL-ZERO = -0.15643E+01
:EFG041:                        EFG         =     1.64340   *10**21  V / m**2
                               V20  TOT/SRF=    -0.15531    -0.17191
                               V22  TOT/SRF=    -0.76444    -0.84915
                               V22M TOT/SRF=     0.21736     0.24315
                               V21  TOT/SRF=    -0.49474    -0.55168
                               V21M TOT/SRF=    -1.10267    -1.22664

             -0.67477    0.21736   -0.49474       -0.52035    0.00000    0.00000
              0.21736    0.85411   -1.10267        0.00000   -1.12305    0.00000
             -0.49474   -1.10267   -0.17934        0.00000    0.00000    1.64340

         MAIN DIRECTIONS OF THE EFG   1.0000  0.8802  0.2366
                                     -0.6309  0.4609  1.0000
                                     -0.5893  1.0000 -0.6692
:ANG041:  ANGLE WITH OLD X-AXIS =        42.3

:ETA041:                         ASYMM. ETA =     0.36674


:VCOUL042 ATOMNUMBER= 42 O       VCOUL-ZERO = -0.15642E+01
:EFG042:                        EFG         =     1.64746   *10**21  V / m**2
                               V20  TOT/SRF=    -0.15708    -0.17390
                               V22  TOT/SRF=    -0.76439    -0.84908
                               V22M TOT/SRF=     0.21875     0.24471
                               V21  TOT/SRF=    -0.49391    -0.55075
                               V21M TOT/SRF=    -1.10686    -1.23129

             -0.67370    0.21875   -0.49391       -0.52326    0.00000    0.00000
              0.21875    0.85508   -1.10686        0.00000   -1.12421    0.00000
             -0.49391   -1.10686   -0.18138        0.00000    0.00000    1.64746

         MAIN DIRECTIONS OF THE EFG   1.0000  0.8716  0.2366
                                     -0.6259  0.4629  1.0000
                                     -0.5818  1.0000 -0.6691
:ANG042:  ANGLE WITH OLD X-AXIS =        42.1

:ETA042:                         ASYMM. ETA =     0.36477


:VCOUL043 ATOMNUMBER= 43 O       VCOUL-ZERO = -0.15640E+01
:EFG043:                        EFG         =     1.64509   *10**21  V / m**2
                               V20  TOT/SRF=    -0.15891    -0.17594
                               V22  TOT/SRF=    -0.76304    -0.84759
                               V22M TOT/SRF=     0.21912     0.24512
                               V21  TOT/SRF=    -0.49424    -0.55113
                               V21M TOT/SRF=    -1.10480    -1.22902

             -0.67130    0.21912   -0.49424       -0.52152    0.00000    0.00000
              0.21912    0.85479   -1.10480        0.00000   -1.12357    0.00000
             -0.49424   -1.10480   -0.18349        0.00000    0.00000    1.64509

         MAIN DIRECTIONS OF THE EFG   1.0000  0.8689  0.2372
                                     -0.6248  0.4622  1.0000
                                     -0.5801  1.0000 -0.6683
:ANG043:  ANGLE WITH OLD X-AXIS =        42.0

:ETA043:                         ASYMM. ETA =     0.36597


:VCOUL044 ATOMNUMBER= 44 O       VCOUL-ZERO = -0.15639E+01
:EFG044:                        EFG         =     1.64448   *10**21  V / m**2
                               V20  TOT/SRF=    -0.15778    -0.17469
                               V22  TOT/SRF=    -0.76338    -0.84797
                               V22M TOT/SRF=     0.21863     0.24457
                               V21  TOT/SRF=    -0.49463    -0.55156
                               V21M TOT/SRF=    -1.10404    -1.22816

             -0.67229    0.21863   -0.49463       -0.52097    0.00000    0.00000
              0.21863    0.85448   -1.10404        0.00000   -1.12351    0.00000
             -0.49463   -1.10404   -0.18219        0.00000    0.00000    1.64448

         MAIN DIRECTIONS OF THE EFG   1.0000  0.8725  0.2371
                                     -0.6269  0.4617  1.0000
                                     -0.5830  1.0000 -0.6686
:ANG044:  ANGLE WITH OLD X-AXIS =        42.1

:ETA044:                         ASYMM. ETA =     0.36640


:VCOUL045 ATOMNUMBER= 45 O       VCOUL-ZERO = -0.15640E+01
:EFG045:                        EFG         =     1.64466   *10**21  V / m**2
                               V20  TOT/SRF=    -0.15700    -0.17381
                               V22  TOT/SRF=    -0.76390    -0.84854
                               V22M TOT/SRF=     0.21826     0.24416
                               V21  TOT/SRF=    -0.49466    -0.55159
                               V21M TOT/SRF=    -1.10405    -1.22818

             -0.67325    0.21826   -0.49466       -0.52106    0.00000    0.00000
              0.21826    0.85454   -1.10405        0.00000   -1.12360    0.00000
             -0.49466   -1.10405   -0.18129        0.00000    0.00000    1.64466

         MAIN DIRECTIONS OF THE EFG   1.0000  0.8747  0.2369
                                     -0.6280  0.4616  1.0000
                                     -0.5848  1.0000 -0.6688
:ANG045:  ANGLE WITH OLD X-AXIS =        42.2

:ETA045:                         ASYMM. ETA =     0.36636


:VCOUL046 ATOMNUMBER= 46 O       VCOUL-ZERO = -0.15641E+01
:EFG046:                        EFG         =     1.64672   *10**21  V / m**2
                               V20  TOT/SRF=    -0.15702    -0.17385
                               V22  TOT/SRF=    -0.76389    -0.84853
                               V22M TOT/SRF=     0.21848     0.24440
                               V21  TOT/SRF=    -0.49372    -0.55054
                               V21M TOT/SRF=    -1.10651    -1.23091

             -0.67323    0.21848   -0.49372       -0.52288    0.00000    0.00000
              0.21848    0.85455   -1.10651        0.00000   -1.12384    0.00000
             -0.49372   -1.10651   -0.18132        0.00000    0.00000    1.64672

         MAIN DIRECTIONS OF THE EFG   1.0000  0.8711  0.2366
                                     -0.6257  0.4631  1.0000
                                     -0.5814  1.0000 -0.6692
:ANG046:  ANGLE WITH OLD X-AXIS =        42.1

:ETA046:                         ASYMM. ETA =     0.36494


:VCOUL047 ATOMNUMBER= 47 O       VCOUL-ZERO = -0.15640E+01
:EFG047:                        EFG         =     1.64587   *10**21  V / m**2
                               V20  TOT/SRF=    -0.15859    -0.17559
                               V22  TOT/SRF=    -0.76399    -0.84863
                               V22M TOT/SRF=     0.21959     0.24563
                               V21  TOT/SRF=    -0.49442    -0.55133
                               V21M TOT/SRF=    -1.10482    -1.22903

             -0.67242    0.21959   -0.49442       -0.52215    0.00000    0.00000
              0.21959    0.85555   -1.10482        0.00000   -1.12371    0.00000
             -0.49442   -1.10482   -0.18313        0.00000    0.00000    1.64587

         MAIN DIRECTIONS OF THE EFG   1.0000  0.8710  0.2372
                                     -0.6261  0.4616  1.0000
                                     -0.5820  1.0000 -0.6682
:ANG047:  ANGLE WITH OLD X-AXIS =        42.1

:ETA047:                         ASYMM. ETA =     0.36550


:VCOUL048 ATOMNUMBER= 48 O       VCOUL-ZERO = -0.15640E+01
:EFG048:                        EFG         =     1.64565   *10**21  V / m**2
                               V20  TOT/SRF=    -0.15839    -0.17536
                               V22  TOT/SRF=    -0.76405    -0.84870
                               V22M TOT/SRF=     0.21997     0.24606
                               V21  TOT/SRF=    -0.49492    -0.55189
                               V21M TOT/SRF=    -1.10429    -1.22844

             -0.67260    0.21997   -0.49492       -0.52194    0.00000    0.00000
              0.21997    0.85550   -1.10429        0.00000   -1.12371    0.00000
             -0.49492   -1.10429   -0.18290        0.00000    0.00000    1.64565

         MAIN DIRECTIONS OF THE EFG   1.0000  0.8723  0.2375
                                     -0.6272  0.4610  1.0000
                                     -0.5832  1.0000 -0.6682
:ANG048:  ANGLE WITH OLD X-AXIS =        42.1

:ETA048:                         ASYMM. ETA =     0.36567


:VCOUL049 ATOMNUMBER= 49 O       VCOUL-ZERO = -0.15640E+01
:EFG049:                        EFG         =     1.64418   *10**21  V / m**2
                               V20  TOT/SRF=    -0.15741    -0.17426
                               V22  TOT/SRF=    -0.76334    -0.84791
                               V22M TOT/SRF=     0.21786     0.24372
                               V21  TOT/SRF=    -0.49449    -0.55141
                               V21M TOT/SRF=    -1.10406    -1.22819

             -0.67246    0.21786   -0.49449       -0.52059    0.00000    0.00000
              0.21786    0.85422   -1.10406        0.00000   -1.12359    0.00000
             -0.49449   -1.10406   -0.18176        0.00000    0.00000    1.64418

         MAIN DIRECTIONS OF THE EFG   1.0000  0.8730  0.2368
                                     -0.6269  0.4621  1.0000
                                     -0.5833  1.0000 -0.6688
:ANG049:  ANGLE WITH OLD X-AXIS =        42.1

:ETA049:                         ASYMM. ETA =     0.36674


:VCOUL050 ATOMNUMBER= 50 O       VCOUL-ZERO = -0.15641E+01
:EFG050:                        EFG         =     1.64649   *10**21  V / m**2
                               V20  TOT/SRF=    -0.15817    -0.17512
                               V22  TOT/SRF=    -0.76387    -0.84850
                               V22M TOT/SRF=     0.21984     0.24591
                               V21  TOT/SRF=    -0.49452    -0.55144
                               V21M TOT/SRF=    -1.10552    -1.22981

             -0.67255    0.21984   -0.49452       -0.52262    0.00000    0.00000
              0.21984    0.85519   -1.10552        0.00000   -1.12386    0.00000
             -0.49452   -1.10552   -0.18264        0.00000    0.00000    1.64649

         MAIN DIRECTIONS OF THE EFG   1.0000  0.8707  0.2374
                                     -0.6262  0.4619  1.0000
                                     -0.5815  1.0000 -0.6686
:ANG050:  ANGLE WITH OLD X-AXIS =        42.1

:ETA050:                         ASYMM. ETA =     0.36517


:VCOUL051 ATOMNUMBER= 51 O       VCOUL-ZERO = -0.15914E+01
:EFG051:                        EFG         =     1.93162   *10**21  V / m**2
                               V20  TOT/SRF=     0.00108     0.00148
                               V22  TOT/SRF=     0.54572     0.60607
                               V22M TOT/SRF=     0.81297     0.90239
                               V21  TOT/SRF=     1.34139     1.48956
                               V21M TOT/SRF=     0.33871     0.37585

              0.54509    0.81297    1.34139        1.93162    0.00000    0.00000
              0.81297   -0.54634    0.33871        0.00000   -1.23861    0.00000
              1.34139    0.33871    0.00125        0.00000    0.00000   -0.69301

         MAIN DIRECTIONS OF THE EFG   1.0000  1.0000  0.1171
                                      0.4335 -0.7445  1.0000
                                      0.7709 -0.8785 -0.7142
:ANG051:  ANGLE WITH OLD X-AXIS =        45.2

:ETA051:                         ASYMM. ETA =     0.28245


:VCOUL052 ATOMNUMBER= 52 O       VCOUL-ZERO = -0.15915E+01
:EFG052:                        EFG         =     1.93165   *10**21  V / m**2
                               V20  TOT/SRF=     0.00184     0.00232
                               V22  TOT/SRF=     0.54583     0.60619
                               V22M TOT/SRF=     0.81319     0.90263
                               V21  TOT/SRF=     1.34130     1.48945
                               V21M TOT/SRF=     0.33857     0.37570

              0.54477    0.81319    1.34130        1.93165    0.00000    0.00000
              0.81319   -0.54690    0.33857        0.00000   -1.23873    0.00000
              1.34130    0.33857    0.00213        0.00000    0.00000   -0.69291

         MAIN DIRECTIONS OF THE EFG   1.0000  1.0000  0.1183
                                      0.4334 -0.7460  1.0000
                                      0.7712 -0.8774 -0.7154
:ANG052:  ANGLE WITH OLD X-AXIS =        45.2

:ETA052:                         ASYMM. ETA =     0.28257


:VCOUL053 ATOMNUMBER= 53 O       VCOUL-ZERO = -0.15914E+01
:EFG053:                        EFG         =     1.93092   *10**21  V / m**2
                               V20  TOT/SRF=     0.00099     0.00137
                               V22  TOT/SRF=     0.54495     0.60521
                               V22M TOT/SRF=     0.81251     0.90188
                               V21  TOT/SRF=     1.34139     1.48956
                               V21M TOT/SRF=     0.33837     0.37548

              0.54438    0.81251    1.34139        1.93092    0.00000    0.00000
              0.81251   -0.54552    0.33837        0.00000   -1.23865    0.00000
              1.34139    0.33837    0.00114        0.00000    0.00000   -0.69227

         MAIN DIRECTIONS OF THE EFG   1.0000  1.0000  0.1163
                                      0.4335 -0.7431  1.0000
                                      0.7711 -0.8792 -0.7129
:ANG053:  ANGLE WITH OLD X-AXIS =        45.2

:ETA053:                         ASYMM. ETA =     0.28296


:VCOUL054 ATOMNUMBER= 54 O       VCOUL-ZERO = -0.15915E+01
:EFG054:                        EFG         =     1.93097   *10**21  V / m**2
                               V20  TOT/SRF=     0.00123     0.00164
                               V22  TOT/SRF=     0.54524     0.60554
                               V22M TOT/SRF=     0.81223     0.90157
                               V21  TOT/SRF=     1.34158     1.48977
                               V21M TOT/SRF=     0.33805     0.37512

              0.54453    0.81223    1.34158        1.93097    0.00000    0.00000
              0.81223   -0.54595    0.33805        0.00000   -1.23874    0.00000
              1.34158    0.33805    0.00142        0.00000    0.00000   -0.69222

         MAIN DIRECTIONS OF THE EFG   1.0000  1.0000  0.1166
                                      0.4332 -0.7434  1.0000
                                      0.7712 -0.8791 -0.7130
:ANG054:  ANGLE WITH OLD X-AXIS =        45.2

:ETA054:                         ASYMM. ETA =     0.28303


:VCOUL055 ATOMNUMBER= 55 O       VCOUL-ZERO = -0.15914E+01
:EFG055:                        EFG         =     1.93077   *10**21  V / m**2
                               V20  TOT/SRF=    -0.00011     0.00016
                               V22  TOT/SRF=     0.54488     0.60514
                               V22M TOT/SRF=     0.81229     0.90164
                               V21  TOT/SRF=     1.34132     1.48949
                               V21M TOT/SRF=     0.33851     0.37564

              0.54494    0.81229    1.34132        1.93077    0.00000    0.00000
              0.81229   -0.54482    0.33851        0.00000   -1.23839    0.00000
              1.34132    0.33851   -0.00012        0.00000    0.00000   -0.69239

         MAIN DIRECTIONS OF THE EFG   1.0000  1.0000  0.1149
                                      0.4335 -0.7414  1.0000
                                      0.7707 -0.8805 -0.7115
:ANG055:  ANGLE WITH OLD X-AXIS =        45.2

:ETA055:                         ASYMM. ETA =     0.28279


:VCOUL056 ATOMNUMBER= 56 O       VCOUL-ZERO = -0.15914E+01
:EFG056:                        EFG         =     1.93104   *10**21  V / m**2
                               V20  TOT/SRF=     0.00040     0.00073
                               V22  TOT/SRF=     0.54610     0.60649
                               V22M TOT/SRF=     0.81323     0.90268
                               V21  TOT/SRF=     1.34075     1.48884
                               V21M TOT/SRF=     0.33784     0.37489

              0.54586    0.81323    1.34075        1.93104    0.00000    0.00000
              0.81323   -0.54633    0.33784        0.00000   -1.23870    0.00000
              1.34075    0.33784    0.00046        0.00000    0.00000   -0.69233

         MAIN DIRECTIONS OF THE EFG   1.0000  1.0000  0.1175
                                      0.4333 -0.7458  1.0000
                                      0.7703 -0.8786 -0.7151
:ANG056:  ANGLE WITH OLD X-AXIS =        45.2

:ETA056:                         ASYMM. ETA =     0.28294


:VCOUL057 ATOMNUMBER= 57 O       VCOUL-ZERO = -0.15914E+01
:EFG057:                        EFG         =     1.93118   *10**21  V / m**2
                               V20  TOT/SRF=    -0.00001     0.00027
                               V22  TOT/SRF=     0.54598     0.60636
                               V22M TOT/SRF=     0.81225     0.90159
                               V21  TOT/SRF=     1.34156     1.48974
                               V21M TOT/SRF=     0.33775     0.37479

              0.54599    0.81225    1.34156        1.93118    0.00000    0.00000
              0.81225   -0.54597    0.33775        0.00000   -1.23876    0.00000
              1.34156    0.33775   -0.00001        0.00000    0.00000   -0.69242

         MAIN DIRECTIONS OF THE EFG   1.0000  1.0000  0.1160
                                      0.4329 -0.7432  1.0000
                                      0.7704 -0.8803 -0.7125
:ANG057:  ANGLE WITH OLD X-AXIS =        45.2

:ETA057:                         ASYMM. ETA =     0.28290


:VCOUL058 ATOMNUMBER= 58 O       VCOUL-ZERO = -0.15915E+01
:EFG058:                        EFG         =     1.93091   *10**21  V / m**2
                               V20  TOT/SRF=    -0.00052    -0.00030
                               V22  TOT/SRF=     0.54601     0.60640
                               V22M TOT/SRF=     0.81147     0.90072
                               V21  TOT/SRF=     1.34186     1.49008
                               V21M TOT/SRF=     0.33731     0.37430

              0.54631    0.81147    1.34186        1.93091    0.00000    0.00000
              0.81147   -0.54571    0.33731        0.00000   -1.23873    0.00000
              1.34186    0.33731   -0.00060        0.00000    0.00000   -0.69218

         MAIN DIRECTIONS OF THE EFG   1.0000  1.0000  0.1150
                                      0.4326 -0.7418  1.0000
                                      0.7703 -0.8817 -0.7109
:ANG058:  ANGLE WITH OLD X-AXIS =        45.2

:ETA058:                         ASYMM. ETA =     0.28306


:VCOUL059 ATOMNUMBER= 59 O       VCOUL-ZERO = -0.15914E+01
:EFG059:                        EFG         =     1.93081   *10**21  V / m**2
                               V20  TOT/SRF=     0.00068     0.00103
                               V22  TOT/SRF=     0.54426     0.60446
                               V22M TOT/SRF=     0.81303     0.90246
                               V21  TOT/SRF=     1.34103     1.48916
                               V21M TOT/SRF=     0.33906     0.37624

              0.54387    0.81303    1.34103        1.93081    0.00000    0.00000
              0.81303   -0.54466    0.33906        0.00000   -1.23846    0.00000
              1.34103    0.33906    0.00078        0.00000    0.00000   -0.69235

         MAIN DIRECTIONS OF THE EFG   1.0000  1.0000  0.1156
                                      0.4340 -0.7423  1.0000
                                      0.7711 -0.8791 -0.7129
:ANG059:  ANGLE WITH OLD X-AXIS =        45.2

:ETA059:                         ASYMM. ETA =     0.28284


:VCOUL060 ATOMNUMBER= 60 O       VCOUL-ZERO = -0.15914E+01
:EFG060:                        EFG         =     1.93111   *10**21  V / m**2
                               V20  TOT/SRF=     0.00187     0.00235
                               V22  TOT/SRF=     0.54516     0.60545
                               V22M TOT/SRF=     0.81314     0.90257
                               V21  TOT/SRF=     1.34110     1.48924
                               V21M TOT/SRF=     0.33849     0.37561

              0.54408    0.81314    1.34110        1.93111    0.00000    0.00000
              0.81314   -0.54624    0.33849        0.00000   -1.23873    0.00000
              1.34110    0.33849    0.00216        0.00000    0.00000   -0.69239

         MAIN DIRECTIONS OF THE EFG   1.0000  1.0000  0.1179
                                      0.4336 -0.7453  1.0000
                                      0.7713 -0.8775 -0.7150
:ANG060:  ANGLE WITH OLD X-AXIS =        45.2

:ETA060:                         ASYMM. ETA =     0.28292


:VCOUL061 ATOMNUMBER= 61 O       VCOUL-ZERO = -0.15914E+01
:EFG061:                        EFG         =     1.93102   *10**21  V / m**2
                               V20  TOT/SRF=     0.00100     0.00139
                               V22  TOT/SRF=     0.54525     0.60555
                               V22M TOT/SRF=     0.81195     0.90125
                               V21  TOT/SRF=     1.34182     1.49004
                               V21M TOT/SRF=     0.33800     0.37507

              0.54467    0.81195    1.34182        1.93102    0.00000    0.00000
              0.81195   -0.54583    0.33800        0.00000   -1.23876    0.00000
              1.34182    0.33800    0.00116        0.00000    0.00000   -0.69225

         MAIN DIRECTIONS OF THE EFG   1.0000  1.0000  0.1161
                                      0.4330 -0.7426  1.0000
                                      0.7711 -0.8797 -0.7121
:ANG061:  ANGLE WITH OLD X-AXIS =        45.2

:ETA061:                         ASYMM. ETA =     0.28302


:VCOUL062 ATOMNUMBER= 62 O       VCOUL-ZERO = -0.15915E+01
:EFG062:                        EFG         =     1.93179   *10**21  V / m**2
                               V20  TOT/SRF=     0.00103     0.00142
                               V22  TOT/SRF=     0.54570     0.60605
                               V22M TOT/SRF=     0.81138     0.90062
                               V21  TOT/SRF=     1.34267     1.49097
                               V21M TOT/SRF=     0.33831     0.37541

              0.54511    0.81138    1.34267        1.93179    0.00000    0.00000
              0.81138   -0.54630    0.33831        0.00000   -1.23877    0.00000
              1.34267    0.33831    0.00119        0.00000    0.00000   -0.69302

         MAIN DIRECTIONS OF THE EFG   1.0000  1.0000  0.1156
                                      0.4327 -0.7415  1.0000
                                      0.7713 -0.8805 -0.7109
:ANG062:  ANGLE WITH OLD X-AXIS =        45.2

:ETA062:                         ASYMM. ETA =     0.28251


:VCOUL063 ATOMNUMBER= 63 O       VCOUL-ZERO = -0.15915E+01
:EFG063:                        EFG         =     1.93092   *10**21  V / m**2
                               V20  TOT/SRF=     0.00208     0.00259
                               V22  TOT/SRF=     0.54554     0.60587
                               V22M TOT/SRF=     0.81231     0.90165
                               V21  TOT/SRF=     1.34142     1.48959
                               V21M TOT/SRF=     0.33786     0.37491

              0.54434    0.81231    1.34142        1.93092    0.00000    0.00000
              0.81231   -0.54674    0.33786        0.00000   -1.23871    0.00000
              1.34142    0.33786    0.00240        0.00000    0.00000   -0.69221

         MAIN DIRECTIONS OF THE EFG   1.0000  1.0000  0.1181
                                      0.4330 -0.7452  1.0000
                                      0.7714 -0.8779 -0.7144
:ANG063:  ANGLE WITH OLD X-AXIS =        45.2

:ETA063:                         ASYMM. ETA =     0.28303


:VCOUL064 ATOMNUMBER= 64 O       VCOUL-ZERO = -0.15914E+01
:EFG064:                        EFG         =     1.93055   *10**21  V / m**2
                               V20  TOT/SRF=     0.00224     0.00277
                               V22  TOT/SRF=     0.54613     0.60653
                               V22M TOT/SRF=     0.81236     0.90171
                               V21  TOT/SRF=     1.34096     1.48908
                               V21M TOT/SRF=     0.33714     0.37411

              0.54484    0.81236    1.34096        1.93055    0.00000    0.00000
              0.81236   -0.54742    0.33714        0.00000   -1.23870    0.00000
              1.34096    0.33714    0.00258        0.00000    0.00000   -0.69185

         MAIN DIRECTIONS OF THE EFG   1.0000  1.0000  0.1193
                                      0.4328 -0.7473  1.0000
                                      0.7712 -0.8773 -0.7158
:ANG064:  ANGLE WITH OLD X-AXIS =        45.2

:ETA064:                         ASYMM. ETA =     0.28326


:VCOUL065 ATOMNUMBER= 65 O       VCOUL-ZERO = -0.15914E+01
:EFG065:                        EFG         =     1.93075   *10**21  V / m**2
                               V20  TOT/SRF=     0.00185     0.00233
                               V22  TOT/SRF=     0.54570     0.60605
                               V22M TOT/SRF=     0.81122     0.90044
                               V21  TOT/SRF=     1.34195     1.49018
                               V21M TOT/SRF=     0.33737     0.37436

              0.54464    0.81122    1.34195        1.93075    0.00000    0.00000
              0.81122   -0.54677    0.33737        0.00000   -1.23867    0.00000
              1.34195    0.33737    0.00213        0.00000    0.00000   -0.69208

         MAIN DIRECTIONS OF THE EFG   1.0000  1.0000  0.1172
                                      0.4325 -0.7437  1.0000
                                      0.7715 -0.8793 -0.7125
:ANG065:  ANGLE WITH OLD X-AXIS =        45.2

:ETA065:                         ASYMM. ETA =     0.28310


:VCOUL066 ATOMNUMBER= 66 O       VCOUL-ZERO = -0.15915E+01
:EFG066:                        EFG         =     1.93252   *10**21  V / m**2
                               V20  TOT/SRF=     0.00187     0.00236
                               V22  TOT/SRF=     0.54726     0.60777
                               V22M TOT/SRF=     0.81236     0.90170
                               V21  TOT/SRF=     1.34229     1.49055
                               V21M TOT/SRF=     0.33795     0.37501

              0.54618    0.81236    1.34229        1.93252    0.00000    0.00000
              0.81236   -0.54834    0.33795        0.00000   -1.23903    0.00000
              1.34229    0.33795    0.00216        0.00000    0.00000   -0.69349

         MAIN DIRECTIONS OF THE EFG   1.0000  1.0000  0.1187
                                      0.4325 -0.7465  1.0000
                                      0.7711 -0.8782 -0.7148
:ANG066:  ANGLE WITH OLD X-AXIS =        45.2

:ETA066:                         ASYMM. ETA =     0.28229


:VCOUL067 ATOMNUMBER= 67 O       VCOUL-ZERO = -0.15715E+01
:EFG067:                        EFG         =     1.99869   *10**21  V / m**2
                               V20  TOT/SRF=     0.00317     0.00259
                               V22  TOT/SRF=    -0.94119    -1.04717
                               V22M TOT/SRF=    -0.52861    -0.58723
                               V21  TOT/SRF=    -0.51331    -0.57028
                               V21M TOT/SRF=     1.26331     1.40379

             -0.94302   -0.52861   -0.51331       -1.16860    0.00000    0.00000
             -0.52861    0.93936    1.26331        0.00000    1.99869    0.00000
             -0.51331    1.26331    0.00366        0.00000    0.00000   -0.83009

         MAIN DIRECTIONS OF THE EFG   1.0000 -0.3038 -0.5018
                                     -0.0329  1.0000 -0.8639
                                      0.4733  0.7114  1.0000
:ANG067:  ANGLE WITH OLD X-AXIS =        30.4

:ETA067:                         ASYMM. ETA =     0.16937


:VCOUL068 ATOMNUMBER= 68 O       VCOUL-ZERO = -0.15715E+01
:EFG068:                        EFG         =     1.99747   *10**21  V / m**2
                               V20  TOT/SRF=     0.00376     0.00324
                               V22  TOT/SRF=    -0.94087    -1.04681
                               V22M TOT/SRF=    -0.52698    -0.58542
                               V21  TOT/SRF=    -0.51340    -0.57038
                               V21M TOT/SRF=     1.26284     1.40327

             -0.94304   -0.52698   -0.51340       -1.16863    0.00000    0.00000
             -0.52698    0.93870    1.26284        0.00000    1.99747    0.00000
             -0.51340    1.26284    0.00434        0.00000    0.00000   -0.82884

         MAIN DIRECTIONS OF THE EFG   1.0000 -0.3035 -0.5046
                                     -0.0344  1.0000 -0.8649
                                      0.4748  0.7118  1.0000
:ANG068:  ANGLE WITH OLD X-AXIS =        30.5

:ETA068:                         ASYMM. ETA =     0.17011


[...]
:FIT169: LUSE= 13 SIGMA OF V-XC FIT FOR ATOM169  0.4610060E-04
:FIT169: LUSE= 13 SIGMA OF V-XC FIT FOR ATOM169  0.4610060E-04
:FIT170: LUSE= 13 SIGMA OF V-XC FIT FOR ATOM170  0.4534915E-04
:FIT170: LUSE= 13 SIGMA OF V-XC FIT FOR ATOM170  0.4534915E-04
:FIT171: LUSE= 13 SIGMA OF V-XC FIT FOR ATOM171  0.4709232E-04
:FIT171: LUSE= 13 SIGMA OF V-XC FIT FOR ATOM171  0.4709232E-04
:FIT172: LUSE= 13 SIGMA OF V-XC FIT FOR ATOM172  0.4273350E-04
:FIT172: LUSE= 13 SIGMA OF V-XC FIT FOR ATOM172  0.4273350E-04
:FIT173: LUSE= 13 SIGMA OF V-XC FIT FOR ATOM173  0.4584549E-04
:FIT173: LUSE= 13 SIGMA OF V-XC FIT FOR ATOM173  0.4584549E-04
:FIT174: LUSE= 13 SIGMA OF V-XC FIT FOR ATOM174  0.4534678E-04
:FIT174: LUSE= 13 SIGMA OF V-XC FIT FOR ATOM174  0.4534678E-04
:FIT175: LUSE= 13 SIGMA OF V-XC FIT FOR ATOM175  0.4616769E-04
:FIT175: LUSE= 13 SIGMA OF V-XC FIT FOR ATOM175  0.4616769E-04
:FIT176: LUSE= 13 SIGMA OF V-XC FIT FOR ATOM176  0.4561908E-04
:FIT176: LUSE= 13 SIGMA OF V-XC FIT FOR ATOM176  0.4561908E-04
:FIT177: LUSE= 13 SIGMA OF V-XC FIT FOR ATOM177  0.4572305E-04
:FIT177: LUSE= 13 SIGMA OF V-XC FIT FOR ATOM177  0.4572305E-04
:FIT178: LUSE= 13 SIGMA OF V-XC FIT FOR ATOM178  0.4651489E-04
:FIT178: LUSE= 13 SIGMA OF V-XC FIT FOR ATOM178  0.4651489E-04
:FIT179: LUSE= 13 SIGMA OF V-XC FIT FOR ATOM179  0.2889026E-04
:FIT179: LUSE= 13 SIGMA OF V-XC FIT FOR ATOM179  0.2889026E-04
:FIT180: LUSE= 13 SIGMA OF V-XC FIT FOR ATOM180  0.2872171E-04
:FIT180: LUSE= 13 SIGMA OF V-XC FIT FOR ATOM180  0.2872171E-04
:FIT181: LUSE= 13 SIGMA OF V-XC FIT FOR ATOM181  0.2877748E-04
:FIT181: LUSE= 13 SIGMA OF V-XC FIT FOR ATOM181  0.2877748E-04
:FIT182: LUSE= 13 SIGMA OF V-XC FIT FOR ATOM182  0.2822463E-04
:FIT182: LUSE= 13 SIGMA OF V-XC FIT FOR ATOM182  0.2822463E-04
:FIT183: LUSE= 13 SIGMA OF V-XC FIT FOR ATOM183  0.2878678E-04
:FIT183: LUSE= 13 SIGMA OF V-XC FIT FOR ATOM183  0.2878678E-04
:FIT184: LUSE= 13 SIGMA OF V-XC FIT FOR ATOM184  0.2853076E-04
:FIT184: LUSE= 13 SIGMA OF V-XC FIT FOR ATOM184  0.2853076E-04
:FIT185: LUSE= 13 SIGMA OF V-XC FIT FOR ATOM185  0.2844652E-04
:FIT185: LUSE= 13 SIGMA OF V-XC FIT FOR ATOM185  0.2844652E-04
:FIT186: LUSE= 13 SIGMA OF V-XC FIT FOR ATOM186  0.2809404E-04
:FIT186: LUSE= 13 SIGMA OF V-XC FIT FOR ATOM186  0.2809404E-04
:FIT187: LUSE= 13 SIGMA OF V-XC FIT FOR ATOM187  0.2853196E-04
:FIT187: LUSE= 13 SIGMA OF V-XC FIT FOR ATOM187  0.2853196E-04
:FIT188: LUSE= 13 SIGMA OF V-XC FIT FOR ATOM188  0.2842871E-04
:FIT188: LUSE= 13 SIGMA OF V-XC FIT FOR ATOM188  0.2842871E-04
:FIT189: LUSE= 13 SIGMA OF V-XC FIT FOR ATOM189  0.2857250E-04
:FIT189: LUSE= 13 SIGMA OF V-XC FIT FOR ATOM189  0.2857250E-04
:FIT190: LUSE= 13 SIGMA OF V-XC FIT FOR ATOM190  0.2794479E-04
:FIT190: LUSE= 13 SIGMA OF V-XC FIT FOR ATOM190  0.2794479E-04
:FIT191: LUSE= 13 SIGMA OF V-XC FIT FOR ATOM191  0.2857566E-04
:FIT191: LUSE= 13 SIGMA OF V-XC FIT FOR ATOM191  0.2857566E-04
:FIT192: LUSE= 13 SIGMA OF V-XC FIT FOR ATOM192  0.2844792E-04
:FIT192: LUSE= 13 SIGMA OF V-XC FIT FOR ATOM192  0.2844792E-04
:FIT193: LUSE= 13 SIGMA OF V-XC FIT FOR ATOM193  0.2898861E-04
:FIT193: LUSE= 13 SIGMA OF V-XC FIT FOR ATOM193  0.2898861E-04
:FIT194: LUSE= 13 SIGMA OF V-XC FIT FOR ATOM194  0.2833139E-04
:FIT194: LUSE= 13 SIGMA OF V-XC FIT FOR ATOM194  0.2833139E-04
:FIT195: LUSE= 13 SIGMA OF V-XC FIT FOR ATOM195  0.3901347E-04
:FIT195: LUSE= 13 SIGMA OF V-XC FIT FOR ATOM195  0.3901347E-04
:FIT196: LUSE= 13 SIGMA OF V-XC FIT FOR ATOM196  0.3896919E-04
:FIT196: LUSE= 13 SIGMA OF V-XC FIT FOR ATOM196  0.3896919E-04
:FIT197: LUSE= 13 SIGMA OF V-XC FIT FOR ATOM197  0.3889875E-04
:FIT197: LUSE= 13 SIGMA OF V-XC FIT FOR ATOM197  0.3889875E-04
:FIT198: LUSE= 13 SIGMA OF V-XC FIT FOR ATOM198  0.3895261E-04
:FIT198: LUSE= 13 SIGMA OF V-XC FIT FOR ATOM198  0.3895261E-04
:FIT199: LUSE= 13 SIGMA OF V-XC FIT FOR ATOM199  0.3891095E-04
:FIT199: LUSE= 13 SIGMA OF V-XC FIT FOR ATOM199  0.3891095E-04
:FIT200: LUSE= 13 SIGMA OF V-XC FIT FOR ATOM200  0.3901310E-04
:FIT200: LUSE= 13 SIGMA OF V-XC FIT FOR ATOM200  0.3901310E-04
:FIT201: LUSE= 13 SIGMA OF V-XC FIT FOR ATOM201  0.3897345E-04
:FIT201: LUSE= 13 SIGMA OF V-XC FIT FOR ATOM201  0.3897345E-04
:FIT202: LUSE= 13 SIGMA OF V-XC FIT FOR ATOM202  0.3885097E-04
:FIT202: LUSE= 13 SIGMA OF V-XC FIT FOR ATOM202  0.3885097E-04
:FIT203: LUSE= 13 SIGMA OF V-XC FIT FOR ATOM203  0.3879722E-04
:FIT203: LUSE= 13 SIGMA OF V-XC FIT FOR ATOM203  0.3879722E-04
:FIT204: LUSE= 13 SIGMA OF V-XC FIT FOR ATOM204  0.3882339E-04
:FIT204: LUSE= 13 SIGMA OF V-XC FIT FOR ATOM204  0.3882339E-04
:FIT205: LUSE= 13 SIGMA OF V-XC FIT FOR ATOM205  0.3873715E-04
:FIT205: LUSE= 13 SIGMA OF V-XC FIT FOR ATOM205  0.3873715E-04
:FIT206: LUSE= 13 SIGMA OF V-XC FIT FOR ATOM206  0.3887869E-04
:FIT206: LUSE= 13 SIGMA OF V-XC FIT FOR ATOM206  0.3887869E-04
:FIT207: LUSE= 13 SIGMA OF V-XC FIT FOR ATOM207  0.3891663E-04
:FIT207: LUSE= 13 SIGMA OF V-XC FIT FOR ATOM207  0.3891663E-04
:FIT208: LUSE= 13 SIGMA OF V-XC FIT FOR ATOM208  0.3918718E-04
:FIT208: LUSE= 13 SIGMA OF V-XC FIT FOR ATOM208  0.3918718E-04
:FIT209: LUSE= 13 SIGMA OF V-XC FIT FOR ATOM209  0.3888383E-04
:FIT209: LUSE= 13 SIGMA OF V-XC FIT FOR ATOM209  0.3888383E-04
:FIT210: LUSE= 13 SIGMA OF V-XC FIT FOR ATOM210  0.3894724E-04
:FIT210: LUSE= 13 SIGMA OF V-XC FIT FOR ATOM210  0.3894724E-04
:FIT211: LUSE= 13 SIGMA OF V-XC FIT FOR ATOM211  0.2666240E-04
:FIT211: LUSE= 13 SIGMA OF V-XC FIT FOR ATOM211  0.2666240E-04
:FIT212: LUSE= 13 SIGMA OF V-XC FIT FOR ATOM212  0.2647246E-04
:FIT212: LUSE= 13 SIGMA OF V-XC FIT FOR ATOM212  0.2647246E-04
:FIT213: LUSE= 13 SIGMA OF V-XC FIT FOR ATOM213  0.2639720E-04
:FIT213: LUSE= 13 SIGMA OF V-XC FIT FOR ATOM213  0.2639720E-04
:FIT214: LUSE= 13 SIGMA OF V-XC FIT FOR ATOM214  0.2626308E-04
:FIT214: LUSE= 13 SIGMA OF V-XC FIT FOR ATOM214  0.2626308E-04
:FIT215: LUSE= 13 SIGMA OF V-XC FIT FOR ATOM215  0.2710980E-04
:FIT215: LUSE= 13 SIGMA OF V-XC FIT FOR ATOM215  0.2710980E-04
:FIT216: LUSE= 13 SIGMA OF V-XC FIT FOR ATOM216  0.2657062E-04
:FIT216: LUSE= 13 SIGMA OF V-XC FIT FOR ATOM216  0.2657062E-04
:FIT217: LUSE= 13 SIGMA OF V-XC FIT FOR ATOM217  0.2653727E-04
:FIT217: LUSE= 13 SIGMA OF V-XC FIT FOR ATOM217  0.2653727E-04
:FIT218: LUSE= 13 SIGMA OF V-XC FIT FOR ATOM218  0.2647836E-04
:FIT218: LUSE= 13 SIGMA OF V-XC FIT FOR ATOM218  0.2647836E-04
:FIT219: LUSE= 13 SIGMA OF V-XC FIT FOR ATOM219  0.2691752E-04
:FIT219: LUSE= 13 SIGMA OF V-XC FIT FOR ATOM219  0.2691752E-04
:FIT220: LUSE= 13 SIGMA OF V-XC FIT FOR ATOM220  0.2638694E-04
:FIT220: LUSE= 13 SIGMA OF V-XC FIT FOR ATOM220  0.2638694E-04
:FIT221: LUSE= 13 SIGMA OF V-XC FIT FOR ATOM221  0.2649108E-04
:FIT221: LUSE= 13 SIGMA OF V-XC FIT FOR ATOM221  0.2649108E-04
:FIT222: LUSE= 13 SIGMA OF V-XC FIT FOR ATOM222  0.2662219E-04
:FIT222: LUSE= 13 SIGMA OF V-XC FIT FOR ATOM222  0.2662219E-04
:FIT223: LUSE= 13 SIGMA OF V-XC FIT FOR ATOM223  0.2656319E-04
:FIT223: LUSE= 13 SIGMA OF V-XC FIT FOR ATOM223  0.2656319E-04
:FIT224: LUSE= 13 SIGMA OF V-XC FIT FOR ATOM224  0.2638662E-04
:FIT224: LUSE= 13 SIGMA OF V-XC FIT FOR ATOM224  0.2638662E-04
:FIT225: LUSE= 13 SIGMA OF V-XC FIT FOR ATOM225  0.2671128E-04
:FIT225: LUSE= 13 SIGMA OF V-XC FIT FOR ATOM225  0.2671128E-04
:FIT226: LUSE= 13 SIGMA OF V-XC FIT FOR ATOM226  0.2660582E-04
:FIT226: LUSE= 13 SIGMA OF V-XC FIT FOR ATOM226  0.2660582E-04
:FIT227: LUSE= 13 SIGMA OF V-XC FIT FOR ATOM227  0.1338683E-03
:FIT227: LUSE= 13 SIGMA OF V-XC FIT FOR ATOM227  0.1338683E-03
:FIT228: LUSE= 13 SIGMA OF V-XC FIT FOR ATOM228  0.1335240E-03
:FIT228: LUSE= 13 SIGMA OF V-XC FIT FOR ATOM228  0.1335240E-03
:FIT229: LUSE= 13 SIGMA OF V-XC FIT FOR ATOM229  0.1332384E-03
:FIT229: LUSE= 13 SIGMA OF V-XC FIT FOR ATOM229  0.1332384E-03
:FIT230: LUSE= 13 SIGMA OF V-XC FIT FOR ATOM230  0.1367559E-03
:FIT230: LUSE= 13 SIGMA OF V-XC FIT FOR ATOM230  0.1367559E-03
:FIT231: LUSE= 13 SIGMA OF V-XC FIT FOR ATOM231  0.1305602E-03
:FIT231: LUSE= 13 SIGMA OF V-XC FIT FOR ATOM231  0.1305602E-03
:FIT232: LUSE= 13 SIGMA OF V-XC FIT FOR ATOM232  0.2310908E-03
:FIT232: LUSE= 13 SIGMA OF V-XC FIT FOR ATOM232  0.2310908E-03
:FIT233: LUSE= 13 SIGMA OF V-XC FIT FOR ATOM233  0.6988308E-04
:FIT233: LUSE= 13 SIGMA OF V-XC FIT FOR ATOM233  0.6988308E-04
:FIT234: LUSE= 13 SIGMA OF V-XC FIT FOR ATOM234  0.2351358E-03
:FIT234: LUSE= 13 SIGMA OF V-XC FIT FOR ATOM234  0.2351358E-03
:FIT235: LUSE= 13 SIGMA OF V-XC FIT FOR ATOM235  0.8093549E-04
:FIT235: LUSE= 13 SIGMA OF V-XC FIT FOR ATOM235  0.8093549E-04
:FIT236: LUSE= 13 SIGMA OF V-XC FIT FOR ATOM236  0.2337300E-03
:FIT236: LUSE= 13 SIGMA OF V-XC FIT FOR ATOM236  0.2337300E-03
:FIT237: LUSE= 13 SIGMA OF V-XC FIT FOR ATOM237  0.1264999E-03
:FIT237: LUSE= 13 SIGMA OF V-XC FIT FOR ATOM237  0.1264999E-03
:FIT238: LUSE= 13 SIGMA OF V-XC FIT FOR ATOM238  0.2326531E-03
:FIT238: LUSE= 13 SIGMA OF V-XC FIT FOR ATOM238  0.2326531E-03
:FIT239: LUSE= 13 SIGMA OF V-XC FIT FOR ATOM239  0.2249652E-03
:FIT239: LUSE= 13 SIGMA OF V-XC FIT FOR ATOM239  0.2249652E-03
:FIT240: LUSE= 13 SIGMA OF V-XC FIT FOR ATOM240  0.2336600E-03
:FIT240: LUSE= 13 SIGMA OF V-XC FIT FOR ATOM240  0.2336600E-03
:FIT241: LUSE= 13 SIGMA OF V-XC FIT FOR ATOM241  0.2233865E-03
:FIT241: LUSE= 13 SIGMA OF V-XC FIT FOR ATOM241  0.2233865E-03
:FIT242: LUSE= 13 SIGMA OF V-XC FIT FOR ATOM242  0.2313808E-03
:FIT242: LUSE= 13 SIGMA OF V-XC FIT FOR ATOM242  0.2313808E-03
:FIT243: LUSE= 13 SIGMA OF V-XC FIT FOR ATOM243  0.3643611E-04
:FIT243: LUSE= 13 SIGMA OF V-XC FIT FOR ATOM243  0.3643611E-04
:FIT244: LUSE= 13 SIGMA OF V-XC FIT FOR ATOM244  0.3639982E-04
:FIT244: LUSE= 13 SIGMA OF V-XC FIT FOR ATOM244  0.3639982E-04
:FIT245: LUSE= 13 SIGMA OF V-XC FIT FOR ATOM245  0.3638192E-04
:FIT245: LUSE= 13 SIGMA OF V-XC FIT FOR ATOM245  0.3638192E-04
:FIT246: LUSE= 13 SIGMA OF V-XC FIT FOR ATOM246  0.3641315E-04
:FIT246: LUSE= 13 SIGMA OF V-XC FIT FOR ATOM246  0.3641315E-04
:FIT247: LUSE= 13 SIGMA OF V-XC FIT FOR ATOM247  0.3640135E-04
:FIT247: LUSE= 13 SIGMA OF V-XC FIT FOR ATOM247  0.3640135E-04
:FIT248: LUSE= 13 SIGMA OF V-XC FIT FOR ATOM248  0.3635917E-04
:FIT248: LUSE= 13 SIGMA OF V-XC FIT FOR ATOM248  0.3635917E-04
:FIT249: LUSE= 13 SIGMA OF V-XC FIT FOR ATOM249  0.3634410E-04
:FIT249: LUSE= 13 SIGMA OF V-XC FIT FOR ATOM249  0.3634410E-04
:FIT250: LUSE= 13 SIGMA OF V-XC FIT FOR ATOM250  0.3641861E-04
:FIT250: LUSE= 13 SIGMA OF V-XC FIT FOR ATOM250  0.3641861E-04
:FIT251: LUSE= 13 SIGMA OF V-XC FIT FOR ATOM251  0.3627471E-04
:FIT251: LUSE= 13 SIGMA OF V-XC FIT FOR ATOM251  0.3627471E-04
:FIT252: LUSE= 13 SIGMA OF V-XC FIT FOR ATOM252  0.3634041E-04
:FIT252: LUSE= 13 SIGMA OF V-XC FIT FOR ATOM252  0.3634041E-04
:FIT253: LUSE= 13 SIGMA OF V-XC FIT FOR ATOM253  0.3649942E-04
:FIT253: LUSE= 13 SIGMA OF V-XC FIT FOR ATOM253  0.3649942E-04
:FIT254: LUSE= 13 SIGMA OF V-XC FIT FOR ATOM254  0.3645060E-04
:FIT254: LUSE= 13 SIGMA OF V-XC FIT FOR ATOM254  0.3645060E-04
:FIT255: LUSE= 13 SIGMA OF V-XC FIT FOR ATOM255  0.3642871E-04
:FIT255: LUSE= 13 SIGMA OF V-XC FIT FOR ATOM255  0.3642871E-04
:FIT256: LUSE= 13 SIGMA OF V-XC FIT FOR ATOM256  0.3636230E-04
:FIT256: LUSE= 13 SIGMA OF V-XC FIT FOR ATOM256  0.3636230E-04
:FIT257: LUSE= 13 SIGMA OF V-XC FIT FOR ATOM257  0.3643486E-04
:FIT257: LUSE= 13 SIGMA OF V-XC FIT FOR ATOM257  0.3643486E-04
:FIT258: LUSE= 13 SIGMA OF V-XC FIT FOR ATOM258  0.3638456E-04
:FIT258: LUSE= 13 SIGMA OF V-XC FIT FOR ATOM258  0.3638456E-04
:FIT259: LUSE= 13 SIGMA OF V-XC FIT FOR ATOM259  0.6082748E-02
:FIT259: LUSE= 13 SIGMA OF V-XC FIT FOR ATOM259  0.6082748E-02
:FIT260: LUSE= 13 SIGMA OF V-XC FIT FOR ATOM260  0.6083158E-02
:FIT260: LUSE= 13 SIGMA OF V-XC FIT FOR ATOM260  0.6083158E-02
:FIT261: LUSE= 13 SIGMA OF V-XC FIT FOR ATOM261  0.6097153E-02
:FIT261: LUSE= 13 SIGMA OF V-XC FIT FOR ATOM261  0.6097153E-02
:FIT262: LUSE= 13 SIGMA OF V-XC FIT FOR ATOM262  0.6148225E-02
:FIT262: LUSE= 13 SIGMA OF V-XC FIT FOR ATOM262  0.6148225E-02
:FIT263: LUSE= 13 SIGMA OF V-XC FIT FOR ATOM263  0.6104918E-02
:FIT263: LUSE= 13 SIGMA OF V-XC FIT FOR ATOM263  0.6104918E-02
:FIT264: LUSE= 13 SIGMA OF V-XC FIT FOR ATOM264  0.6111866E-02
:FIT264: LUSE= 13 SIGMA OF V-XC FIT FOR ATOM264  0.6111866E-02
:FIT265: LUSE= 13 SIGMA OF V-XC FIT FOR ATOM265  0.6164381E-02
:FIT265: LUSE= 13 SIGMA OF V-XC FIT FOR ATOM265  0.6164381E-02
:FIT266: LUSE= 13 SIGMA OF V-XC FIT FOR ATOM266  0.6204997E-02
:FIT266: LUSE= 13 SIGMA OF V-XC FIT FOR ATOM266  0.6204997E-02
:FIT267: LUSE= 13 SIGMA OF V-XC FIT FOR ATOM267  0.6116051E-02
:FIT267: LUSE= 13 SIGMA OF V-XC FIT FOR ATOM267  0.6116051E-02
:FIT268: LUSE= 13 SIGMA OF V-XC FIT FOR ATOM268  0.6114677E-02
:FIT268: LUSE= 13 SIGMA OF V-XC FIT FOR ATOM268  0.6114677E-02
:FIT269: LUSE= 13 SIGMA OF V-XC FIT FOR ATOM269  0.6143676E-02
:FIT269: LUSE= 13 SIGMA OF V-XC FIT FOR ATOM269  0.6143676E-02
:FIT270: LUSE= 13 SIGMA OF V-XC FIT FOR ATOM270  0.6256935E-02
:FIT270: LUSE= 13 SIGMA OF V-XC FIT FOR ATOM270  0.6256935E-02
:FIT271: LUSE= 13 SIGMA OF V-XC FIT FOR ATOM271  0.6109642E-02
:FIT271: LUSE= 13 SIGMA OF V-XC FIT FOR ATOM271  0.6109642E-02
:FIT272: LUSE= 13 SIGMA OF V-XC FIT FOR ATOM272  0.6129751E-02
:FIT272: LUSE= 13 SIGMA OF V-XC FIT FOR ATOM272  0.6129751E-02
:FIT273: LUSE= 13 SIGMA OF V-XC FIT FOR ATOM273  0.6095227E-02
:FIT273: LUSE= 13 SIGMA OF V-XC FIT FOR ATOM273  0.6095227E-02
:FIT274: LUSE= 13 SIGMA OF V-XC FIT FOR ATOM274  0.6193935E-02
:FIT274: LUSE= 13 SIGMA OF V-XC FIT FOR ATOM274  0.6193935E-02
:FIT275: LUSE= 13 SIGMA OF V-XC FIT FOR ATOM275  0.6229924E-02
:FIT275: LUSE= 13 SIGMA OF V-XC FIT FOR ATOM275  0.6229924E-02
:FIT276: LUSE= 13 SIGMA OF V-XC FIT FOR ATOM276  0.6257730E-02
:FIT276: LUSE= 13 SIGMA OF V-XC FIT FOR ATOM276  0.6257730E-02
:FIT277: LUSE= 13 SIGMA OF V-XC FIT FOR ATOM277  0.6247137E-02
:FIT277: LUSE= 13 SIGMA OF V-XC FIT FOR ATOM277  0.6247137E-02
:FIT278: LUSE= 13 SIGMA OF V-XC FIT FOR ATOM278  0.6281412E-02
:FIT278: LUSE= 13 SIGMA OF V-XC FIT FOR ATOM278  0.6281412E-02
:FIT279: LUSE= 13 SIGMA OF V-XC FIT FOR ATOM279  0.6231530E-02
:FIT279: LUSE= 13 SIGMA OF V-XC FIT FOR ATOM279  0.6231530E-02
:FIT280: LUSE= 13 SIGMA OF V-XC FIT FOR ATOM280  0.6270554E-02
:FIT280: LUSE= 13 SIGMA OF V-XC FIT FOR ATOM280  0.6270554E-02
:FIT281: LUSE= 13 SIGMA OF V-XC FIT FOR ATOM281  0.6296455E-02
:FIT281: LUSE= 13 SIGMA OF V-XC FIT FOR ATOM281  0.6296455E-02
:FIT282: LUSE= 13 SIGMA OF V-XC FIT FOR ATOM282  0.6266883E-02
:FIT282: LUSE= 13 SIGMA OF V-XC FIT FOR ATOM282  0.6266883E-02
:FIT283: LUSE= 13 SIGMA OF V-XC FIT FOR ATOM283  0.6241960E-02
:FIT283: LUSE= 13 SIGMA OF V-XC FIT FOR ATOM283  0.6241960E-02
:FIT284: LUSE= 13 SIGMA OF V-XC FIT FOR ATOM284  0.6264755E-02
:FIT284: LUSE= 13 SIGMA OF V-XC FIT FOR ATOM284  0.6264755E-02
:FIT285: LUSE= 13 SIGMA OF V-XC FIT FOR ATOM285  0.6279128E-02
:FIT285: LUSE= 13 SIGMA OF V-XC FIT FOR ATOM285  0.6279128E-02
:FIT286: LUSE= 13 SIGMA OF V-XC FIT FOR ATOM286  0.6253745E-02
:FIT286: LUSE= 13 SIGMA OF V-XC FIT FOR ATOM286  0.6253745E-02
:FIT287: LUSE= 13 SIGMA OF V-XC FIT FOR ATOM287  0.6272422E-02
:FIT287: LUSE= 13 SIGMA OF V-XC FIT FOR ATOM287  0.6272422E-02
:FIT288: LUSE= 13 SIGMA OF V-XC FIT FOR ATOM288  0.6287220E-02
:FIT288: LUSE= 13 SIGMA OF V-XC FIT FOR ATOM288  0.6287220E-02
:FIT289: LUSE= 13 SIGMA OF V-XC FIT FOR ATOM289  0.6294282E-02
:FIT289: LUSE= 13 SIGMA OF V-XC FIT FOR ATOM289  0.6294282E-02
:FIT290: LUSE= 13 SIGMA OF V-XC FIT FOR ATOM290  0.2339585E-02
:FIT290: LUSE= 13 SIGMA OF V-XC FIT FOR ATOM290  0.2339585E-02
:FIT291: LUSE= 13 SIGMA OF V-XC FIT FOR ATOM291  0.1447833E-02
:FIT291: LUSE= 13 SIGMA OF V-XC FIT FOR ATOM291  0.1447833E-02
:FIT292: LUSE= 13 SIGMA OF V-XC FIT FOR ATOM292  0.9868543E-02
:FIT292: LUSE= 13 SIGMA OF V-XC FIT FOR ATOM292  0.9868543E-02
:FIT293: LUSE= 13 SIGMA OF V-XC FIT FOR ATOM293  0.1185443E-02
:FIT293: LUSE= 13 SIGMA OF V-XC FIT FOR ATOM293  0.1185443E-02
:FIT294: LUSE= 13 SIGMA OF V-XC FIT FOR ATOM294  0.4691961E-02
:FIT294: LUSE= 13 SIGMA OF V-XC FIT FOR ATOM294  0.4691961E-02
:FIT295: LUSE= 13 SIGMA OF V-XC FIT FOR ATOM295  0.2603716E-02
:FIT295: LUSE= 13 SIGMA OF V-XC FIT FOR ATOM295  0.2603716E-02
:FIT296: LUSE= 13 SIGMA OF V-XC FIT FOR ATOM296  0.5564403E-02
:FIT296: LUSE= 13 SIGMA OF V-XC FIT FOR ATOM296  0.5564403E-02
:FIT297: LUSE= 13 SIGMA OF V-XC FIT FOR ATOM297  0.9732868E-02
:FIT297: LUSE= 13 SIGMA OF V-XC FIT FOR ATOM297  0.9732868E-02
:FIT298: LUSE= 13 SIGMA OF V-XC FIT FOR ATOM298  0.5648893E-02
:FIT298: LUSE= 13 SIGMA OF V-XC FIT FOR ATOM298  0.5648893E-02
:FIT299: LUSE= 13 SIGMA OF V-XC FIT FOR ATOM299  0.6173303E-02
:FIT299: LUSE= 13 SIGMA OF V-XC FIT FOR ATOM299  0.6173303E-02
:FIT300: LUSE= 13 SIGMA OF V-XC FIT FOR ATOM300  0.1229082E-02
:FIT300: LUSE= 13 SIGMA OF V-XC FIT FOR ATOM300  0.1229082E-02
:FIT301: LUSE= 13 SIGMA OF V-XC FIT FOR ATOM301  0.9699051E-02
:FIT301: LUSE= 13 SIGMA OF V-XC FIT FOR ATOM301  0.9699051E-02
:FIT302: LUSE= 13 SIGMA OF V-XC FIT FOR ATOM302  0.1265116E-02
:FIT302: LUSE= 13 SIGMA OF V-XC FIT FOR ATOM302  0.1265116E-02
:FIT303: LUSE= 13 SIGMA OF V-XC FIT FOR ATOM303  0.1441508E-02
:FIT303: LUSE= 13 SIGMA OF V-XC FIT FOR ATOM303  0.1441508E-02
:FIT304: LUSE= 13 SIGMA OF V-XC FIT FOR ATOM304  0.2211417E-02
:FIT304: LUSE= 13 SIGMA OF V-XC FIT FOR ATOM304  0.2211417E-02
:FIT305: LUSE= 13 SIGMA OF V-XC FIT FOR ATOM305  0.5828650E-02
:FIT305: LUSE= 13 SIGMA OF V-XC FIT FOR ATOM305  0.5828650E-02
:FIT306: LUSE= 13 SIGMA OF V-XC FIT FOR ATOM306  0.1172765E-01
:FIT306: LUSE= 13 SIGMA OF V-XC FIT FOR ATOM306  0.1172765E-01
:FIT307: LUSE= 13 SIGMA OF V-XC FIT FOR ATOM307  0.1174944E-01
:FIT307: LUSE= 13 SIGMA OF V-XC FIT FOR ATOM307  0.1174944E-01
:FIT308: LUSE= 13 SIGMA OF V-XC FIT FOR ATOM308  0.7219185E-02
:FIT308: LUSE= 13 SIGMA OF V-XC FIT FOR ATOM308  0.7219185E-02
:FIT309: LUSE= 13 SIGMA OF V-XC FIT FOR ATOM309  0.3538989E-02
:FIT309: LUSE= 13 SIGMA OF V-XC FIT FOR ATOM309  0.3538989E-02
:FIT310: LUSE= 13 SIGMA OF V-XC FIT FOR ATOM310  0.2725064E-02
:FIT310: LUSE= 13 SIGMA OF V-XC FIT FOR ATOM310  0.2725064E-02
:FIT311: LUSE= 13 SIGMA OF V-XC FIT FOR ATOM311  0.6855291E-02
:FIT311: LUSE= 13 SIGMA OF V-XC FIT FOR ATOM311  0.6855291E-02
:FIT312: LUSE= 13 SIGMA OF V-XC FIT FOR ATOM312  0.1284496E-02
:FIT312: LUSE= 13 SIGMA OF V-XC FIT FOR ATOM312  0.1284496E-02
:FIT313: LUSE= 13 SIGMA OF V-XC FIT FOR ATOM313  0.6452129E-02
:FIT313: LUSE= 13 SIGMA OF V-XC FIT FOR ATOM313  0.6452129E-02
:FIT314: LUSE= 13 SIGMA OF V-XC FIT FOR ATOM314  0.1450658E-02
:FIT314: LUSE= 13 SIGMA OF V-XC FIT FOR ATOM314  0.1450658E-02
:FIT315: LUSE= 13 SIGMA OF V-XC FIT FOR ATOM315  0.6482309E-02
:FIT315: LUSE= 13 SIGMA OF V-XC FIT FOR ATOM315  0.6482309E-02
:FIT316: LUSE= 13 SIGMA OF V-XC FIT FOR ATOM316  0.1614512E-02
:FIT316: LUSE= 13 SIGMA OF V-XC FIT FOR ATOM316  0.1614512E-02
:FIT317: LUSE= 13 SIGMA OF V-XC FIT FOR ATOM317  0.1289084E-02
:FIT317: LUSE= 13 SIGMA OF V-XC FIT FOR ATOM317  0.1289084E-02
:FIT318: LUSE= 13 SIGMA OF V-XC FIT FOR ATOM318  0.1167485E-01
:FIT318: LUSE= 13 SIGMA OF V-XC FIT FOR ATOM318  0.1167485E-01
:FIT319: LUSE= 13 SIGMA OF V-XC FIT FOR ATOM319  0.1215001E-02
:FIT319: LUSE= 13 SIGMA OF V-XC FIT FOR ATOM319  0.1215001E-02
:FIT320: LUSE= 13 SIGMA OF V-XC FIT FOR ATOM320  0.2709684E-02
:FIT320: LUSE= 13 SIGMA OF V-XC FIT FOR ATOM320  0.2709684E-02
:FIT321: LUSE= 13 SIGMA OF V-XC FIT FOR ATOM321  0.4629281E-04
:FIT321: LUSE= 13 SIGMA OF V-XC FIT FOR ATOM321  0.4629281E-04
:FIT322: LUSE= 13 SIGMA OF V-XC FIT FOR ATOM322  0.9228356E-03
:FIT322: LUSE= 13 SIGMA OF V-XC FIT FOR ATOM322  0.9228356E-03
:FIT323: LUSE= 13 SIGMA OF V-XC FIT FOR ATOM323  0.9214413E-03
:FIT323: LUSE= 13 SIGMA OF V-XC FIT FOR ATOM323  0.9214413E-03
:DEN  : DENSITY INTEGRAL  =        -75707.59395154   (Ry)
       ELS_POTENTIAL_AT Z=0 and Z=0.5:  -0.10546  -0.29805
       ELS_POTENTIAL_AT Y=0 and Y=0.5:  -0.33100  -0.32995
:VZERO:v0,v0c,v0x  -0.70126  -0.10546  -0.59579 v5,v5c,v5x  -1.00814  -0.29805  -0.71009
:VZERY:v0,v0c,v0x  -0.97209  -0.33100  -0.64109 v5,v5c,v5x  -0.96766  -0.32995  -0.63770
:VZERX:v0,v0c,v0x  -0.46745   0.09099  -0.55844 v5,v5c,v5x  -0.44143   0.10030  -0.54173
