

 Parallel Execution: Process Information
 ==============================================================================
 Rank   Node Name                              NodeID   MyNodeRank  NodeMaster
    0   adf1                                      0          0          0
    1   adf1                                      0          1         -1
    2   adf1                                      0          2         -1
    3   adf1                                      0          3         -1
    4   adf1                                      0          4         -1
    5   adf1                                      0          5         -1
    6   adf1                                      0          6         -1
    7   adf1                                      0          7         -1
    8   adf1                                      0          8         -1
    9   adf1                                      0          9         -1
   10   adf1                                      0         10         -1
   11   adf1                                      0         11         -1
 ==============================================================================


May use up to 22932MB of RAM as shared memory on node 0

 *******************************************************************************
 *                                                                             *
 *  --------------------------------                                           *
 *   Amsterdam Modeling Suite (AMS)              2020.202                      *
 *  --------------------------------                                           *
 *                                               r90167 2020-12-05             *
 *                                                                             *
 *                                                                             *
 *                              =================                              *
 *                              |               |                              *
 *                              |     A M S     |                              *
 *                              |               |                              *
 *                              =================                              *
 *                                                                             *
 *                                                                             *
 *   Online information and documentation:  https://www.scm.com/support/       *
 *   E-mail:  support@scm.com   info@scm.com                                   *
 *                                                                             *
 *   Scientific publications using AMS results must be properly referenced     *
 *   See the User Manuals (or the web site) for recommended citations          *
 *   The terms and conditions of the End User License Agreement apply to       *
 *   the use of AMS, https://www.scm.com/license-terms/                        *
 *                                                                             *
 **********************  x86_64_linux_intel / intelmpi  ************************
 
 Licensed to: Dr. Miroslav Ilias / Matej Bel University, Department Chemistry, Fac. Natural Sciences / Banska Bystrica / SLOVAKIA
 SCM User ID: u17848
  
 AMS 2020.202  RunTime: Mar06-2021 15:16:39  Nodes: 1  Procs: 12

 AMS jobname: ams
 AMS jobid  : 1554348570

 Start   directory: /home/milias/Work/projects/open-collection/theoretical_chemistry/projects/nmr_diplomovky/HD/ams/pbe0_tz2p_good/cosmo-water/tmp.milias.16608.0.noindex/
 Results directory: /home/milias/Work/projects/open-collection/theoretical_chemistry/projects/nmr_diplomovky/HD/ams/pbe0_tz2p_good/cosmo-water/HD.geopt_freq_nmr_shield_pbe0_tz2p_good_cosmo-water.results/
 Scratch directory: /tmp/amstmp_ams_kid0.1554348570/


 Communication costs MPI_COMM_WORLD:      2.780 usec per message,   0.0274 usec per 8-byte item
 Communication costs for intra-node:      2.720 usec per message,   0.0277 usec per 8-byte item

 RNG seed: 2103466732 632480296 2139529410 1357752190 90418633 1749170373 -1416458262 2116915719



                       *********************************************************************
                       *  ADF 2020.202  RunTime: Mar06-2021 15:16:39  Nodes: 1  Procs: 12  *
                       *********************************************************************
  
       ***************************
       *  GEOMETRY OPTIMIZATION  *
       ***************************

Optimization Method                    Quasi Newton
Optimization Coordinates               Delocalized Coordinates
Optimize lattice                       F
 
 ------------------------------------------------------
 Convergence criteria (Hartree,Angstrom)
 ------------------------------------------------------
 Maximum gradient               0.001000000000
 Maximum rms gradient           0.000666666667
 Maximum step allowed           0.001000000000
 Maximum rms step allowed       0.000666666667
 Maximum energy change allowe   0.000150000000
 Maximum stress energy allowe   0.000500000000
 
Initial model Hessian                  Automatic Hessian
 
------------------------------------
Quasi-Newton Optimizer Parameters
------------------------------------
Hessian Update Method                  BFGS
Maximum number of steps                  250
First GDIIS cycle                          0
Maximum GDIIS vectors                      0
Trust radius (bohr)                        0.200000
Trust radius varies                        T
Constraints converged at all steps         T
Use projector                              T
 
 Rigid motions settings for: old optimizer
 Atomic rotations (x,y,z):     T T T
 Atomic translations (x,y,z):  T T T
 Tolerance:                   1.000000000000000E-006
 
--------
Geometry
--------
Atoms
  Index Symbol   x (angstrom)   y (angstrom)   z (angstrom)
      1      S     0.00000000     0.00000000    -0.96305464       adf.R=1.792
      2      C     1.37516212    -0.00000000     0.21741316       adf.R=1.700
      3      H     1.30708701     0.88839015     0.84606310       adf.R=1.350
      4      H     1.30708701    -0.88839015     0.84606310       adf.R=1.350
      5      C     2.66954682    -0.00000000    -0.55853959       adf.R=1.700
      6      H     2.77051719     0.88798365    -1.17778132       adf.R=1.350
      7      H     2.77051719    -0.88798365    -1.17778132       adf.R=1.350
      8      C    -1.37516212     0.00000000     0.21741316       adf.R=1.700
      9      H    -1.30708701    -0.88839015     0.84606310       adf.R=1.350
     10      H    -1.30708701     0.88839015     0.84606310       adf.R=1.350
     11      C    -2.66954682     0.00000000    -0.55853959       adf.R=1.700
     12      H    -2.77051719     0.88798365    -1.17778132       adf.R=1.350
     13      H    -2.77051719    -0.88798365    -1.17778132       adf.R=1.350
     14     Cl     4.06530829    -0.00000000     0.56413975       adf.R=1.725
     15     Cl    -4.06530829     0.00000000     0.56413975       adf.R=1.725
 
Total System Charge             0.00000
Bonding info available!
 
 
----------------
ADF Engine Input
----------------
 
 Basis
 Type TZ2P
 Core None
 End
 Save TAPE10
 XC
 Hybrid PBE0
 End
 Relativity
 Level None
 End
 Solvation
 Surf Delley
 Solv name=Water cav0=0.0 cav1=0.0067639
 Charged method=CONJ
 C-Mat POT
 SCF VAR ALL
 CSMRSP
 End
 NumericalQuality Good
 

 Title: *** (NO TITLE) ***

Number of symmetry operators: 4
Schoenflies symbol:           C(2V)
 Using automatic Hessian for delocalized coordinates.
 *** GOStep1 ***

 SOLVATION
-------------------------------------------

  The Delley construction of COSMO surface surface is calculated

       Division Level for Surface Triangles (NDIV)                  3
       Final Division Level for Triangles (NFDIV)                   1
       Radius of the Solvent (RSOL)                           1.93000 angstr
  Dielectric Constant (EPSL)                                 78.39000

       COSMO equation is solved iteratively-               conjugate-gradient

       Maximun of Iterations for Charges (NCIX)                  1000
       Criterion for Charge convergence (CCNV)                1.0E-08

  COSMO charges included variationally in SCF

       COSMO included at every SCF cycle

  Geometry-dependent empirical factor                         0.00000

  C-Matrix calculated in cspmtx

  In cspmtx, C-Matrix calculated using fitted potential

-------------------------------------------



 -------------------------------------------
  COSMO surface
  Area             =          590.902
  Volume           =          985.843
  Number of Points =         1433
 -------------------------------------------



 ======================
 RI Hartree-Fock Scheme
 ======================
  
 Fit Set Quality     : GOOD
 Integration Quality : GOOD
 Threshold Quality   : GOOD
 Response Quality    : DEFAULT
 Is Range Separated  :  F
 
 RIHartreeFock Dependency: number of modified vectors:          12
 cosmo_calcen: 0.5 (esolb+esolc) (Hartrees) =   -0.010053

 Solvation energy (screening term,uncorrected) =     -6.308597 kcal/mol

 Solvation energy (dispersion and cavitation terms) =      1.104941 kcal/mol
 Solvation Energy Contributions (Hartrees)
          esola   esolb+esolc
     0.01005339   -0.02010678
 esol last cycle   -0.01005339
  
 Hartree-Fock exchange energy:   -103.694315782120     
 cosmo_calcen: 0.5 (esolb+esolc) (Hartrees) =   -0.010053

 Solvation energy (screening term,uncorrected) =     -6.308595 kcal/mol

 Solvation energy (dispersion and cavitation terms) =      1.104941 kcal/mol
 Solvation Energy Contributions (Hartrees)
          esola   esolb+esolc
     0.01005339   -0.02010677
 esol last cycle   -0.01005339
  pauli hf:                              1.355416715494943         36.8828           850.54          3558.65
  elstat hf:                            -1.320546855600817        -35.9339          -828.66         -3467.10

 Energy gradients wrt nuclear displacements
 ==========================================

     Atom      Cartesian (a.u./angstrom)
                 X         Y         Z
 ----------------------------------------
     1 S     0.000000  0.000000 -0.000103
     2 C    -0.000764  0.000000 -0.000554
     3 H     0.000227  0.000000  0.000223
     4 H     0.000227 -0.000000  0.000223
     5 C     0.001565  0.000000  0.001389
     6 H    -0.000202  0.000048 -0.000278
     7 H    -0.000202 -0.000048 -0.000278
     8 C     0.000764 -0.000000 -0.000554
     9 H    -0.000227 -0.000000  0.000223
    10 H    -0.000227  0.000000  0.000223
    11 C    -0.001565  0.000000  0.001389
    12 H     0.000202  0.000048 -0.000278
    13 H     0.000202 -0.000048 -0.000278
    14 Cl   -0.000884  0.000000 -0.000674
    15 Cl    0.000884 -0.000000 -0.000674
 ----------------------------------------
 Mulliken charges used for AMS results%charges...
 
----------------------------------------------------------------------
Geometry Convergence after Step   1       (Hartree/Angstrom,Angstrom)
----------------------------------------------------------------------
current energy                               -3.35095837 Hartree
energy change                      -3.35095837     0.00015000    F
constrained gradient max            0.00156467     0.00100000    F
constrained gradient rms            0.00055590     0.00066667    T
gradient max                        0.00156467
gradient rms                        0.00055590
cart. step max                      0.00104111     0.00100000    F
cart. step rms                      0.00050130     0.00066667    T
 
 
--------
Geometry
--------
Atoms
  Index Symbol   x (angstrom)   y (angstrom)   z (angstrom)
      1      S     0.00000000    -0.00000000    -0.96335380       adf.R=1.792
      2      C     1.37504542    -0.00000000     0.21724323       adf.R=1.700
      3      H     1.30604590     0.88854758     0.84545859       adf.R=1.350
      4      H     1.30604590    -0.88854758     0.84545859       adf.R=1.350
      5      C     2.66931938    -0.00000000    -0.55872972       adf.R=1.700
      6      H     2.77129234     0.88815542    -1.17738529       adf.R=1.350
      7      H     2.77129234    -0.88815542    -1.17738529       adf.R=1.350
      8      C    -1.37504542     0.00000000     0.21724323       adf.R=1.700
      9      H    -1.30604590    -0.88854758     0.84545859       adf.R=1.350
     10      H    -1.30604590     0.88854758     0.84545859       adf.R=1.350
     11      C    -2.66931938     0.00000000    -0.55872972       adf.R=1.700
     12      H    -2.77129234     0.88815542    -1.17738529       adf.R=1.350
     13      H    -2.77129234    -0.88815542    -1.17738529       adf.R=1.350
     14     Cl     4.06499543    -0.00000000     0.56506635       adf.R=1.725
     15     Cl    -4.06499543     0.00000000     0.56506635       adf.R=1.725
 
Total System Charge             0.00000
Bonding info available!
 
 *** GOStep2 ***

 SOLVATION
-------------------------------------------

  The Delley construction of COSMO surface surface is calculated

       Division Level for Surface Triangles (NDIV)                  3
       Final Division Level for Triangles (NFDIV)                   1
       Radius of the Solvent (RSOL)                           1.93000 angstr
  Dielectric Constant (EPSL)                                 78.39000

       COSMO equation is solved iteratively-               conjugate-gradient

       Maximun of Iterations for Charges (NCIX)                  1000
       Criterion for Charge convergence (CCNV)                1.0E-08

  COSMO charges included variationally in SCF

       COSMO included at every SCF cycle

  Geometry-dependent empirical factor                         0.00000

  C-Matrix calculated in cspmtx

  In cspmtx, C-Matrix calculated using fitted potential

-------------------------------------------



 -------------------------------------------
  COSMO surface
  Area             =          590.924
  Volume           =          985.855
  Number of Points =         1433
 -------------------------------------------



 ======================
 RI Hartree-Fock Scheme
 ======================
  
 Fit Set Quality     : GOOD
 Integration Quality : GOOD
 Threshold Quality   : GOOD
 Response Quality    : DEFAULT
 Is Range Separated  :  F
 
 RIHartreeFock Dependency: number of modified vectors:          12
 cosmo_calcen: 0.5 (esolb+esolc) (Hartrees) =   -0.010080

 Solvation energy (screening term,uncorrected) =     -6.325176 kcal/mol

 Solvation energy (dispersion and cavitation terms) =      1.104983 kcal/mol
 Solvation Energy Contributions (Hartrees)
          esola   esolb+esolc
     0.01007981   -0.02015962
 esol last cycle   -0.01007981
  
 Hartree-Fock exchange energy:   -103.694271836002     
 cosmo_calcen: 0.5 (esolb+esolc) (Hartrees) =   -0.010080

 Solvation energy (screening term,uncorrected) =     -6.325177 kcal/mol

 Solvation energy (dispersion and cavitation terms) =      1.104983 kcal/mol
 Solvation Energy Contributions (Hartrees)
          esola   esolb+esolc
     0.01007981   -0.02015962
 esol last cycle   -0.01007981
  pauli hf:                              1.354703520412379         36.8634           850.09          3556.77
  elstat hf:                            -1.320420073963440        -35.9305          -828.58         -3466.76

 Energy gradients wrt nuclear displacements
 ==========================================

     Atom      Cartesian (a.u./angstrom)
                 X         Y         Z
 ----------------------------------------
     1 S     0.000000  0.000000  0.000187
     2 C    -0.000472  0.000000 -0.000254
     3 H     0.000061  0.000009  0.000109
     4 H     0.000061 -0.000009  0.000109
     5 C     0.001088 -0.000000  0.000769
     6 H    -0.000083  0.000025 -0.000153
     7 H    -0.000083 -0.000025 -0.000153
     8 C     0.000472 -0.000000 -0.000254
     9 H    -0.000061 -0.000009  0.000109
    10 H    -0.000061  0.000009  0.000109
    11 C    -0.001088  0.000000  0.000769
    12 H     0.000083  0.000025 -0.000153
    13 H     0.000083 -0.000025 -0.000153
    14 Cl   -0.000713  0.000000 -0.000521
    15 Cl    0.000713  0.000000 -0.000521
 ----------------------------------------
 Mulliken charges used for AMS results%charges...

 dE(predicted):    -0.20280E-05, dE(actual):    -0.30354E-05, Trust radius:    0.200000, all in a.u.
 
----------------------------------------------------------------------
Geometry Convergence after Step   2       (Hartree/Angstrom,Angstrom)
----------------------------------------------------------------------
current energy                               -3.35096141 Hartree
energy change                      -0.00000304     0.00015000    T
constrained gradient max            0.00108839     0.00100000    F
constrained gradient rms            0.00036230     0.00066667    T
gradient max                        0.00108839
gradient rms                        0.00036230
cart. step max                      0.00127342     0.00100000    F
cart. step rms                      0.00063035     0.00066667    T
 
 
--------
Geometry
--------
Atoms
  Index Symbol   x (angstrom)   y (angstrom)   z (angstrom)
      1      S     0.00000000     0.00000000    -0.96409152       adf.R=1.792
      2      C     1.37501509    -0.00000000     0.21685130       adf.R=1.700
      3      H     1.30512517     0.88873637     0.84453259       adf.R=1.350
      4      H     1.30512517    -0.88873637     0.84453259       adf.R=1.350
      5      C     2.66916499    -0.00000000    -0.55880650       adf.R=1.700
      6      H     2.77232677     0.88838475    -1.17667721       adf.R=1.350
      7      H     2.77232677    -0.88838475    -1.17667721       adf.R=1.350
      8      C    -1.37501509     0.00000000     0.21685130       adf.R=1.700
      9      H    -1.30512517    -0.88873637     0.84453259       adf.R=1.350
     10      H    -1.30512517     0.88873637     0.84453259       adf.R=1.350
     11      C    -2.66916499     0.00000000    -0.55880650       adf.R=1.700
     12      H    -2.77232677     0.88838475    -1.17667721       adf.R=1.350
     13      H    -2.77232677    -0.88838475    -1.17667721       adf.R=1.350
     14     Cl     4.06535945    -0.00000000     0.56633977       adf.R=1.725
     15     Cl    -4.06535945     0.00000000     0.56633977       adf.R=1.725
 
Total System Charge             0.00000
Bonding info available!
 
 *** GOStep3 ***

 SOLVATION
-------------------------------------------

  The Delley construction of COSMO surface surface is calculated

       Division Level for Surface Triangles (NDIV)                  3
       Final Division Level for Triangles (NFDIV)                   1
       Radius of the Solvent (RSOL)                           1.93000 angstr
  Dielectric Constant (EPSL)                                 78.39000

       COSMO equation is solved iteratively-               conjugate-gradient

       Maximun of Iterations for Charges (NCIX)                  1000
       Criterion for Charge convergence (CCNV)                1.0E-08

  COSMO charges included variationally in SCF

       COSMO included at every SCF cycle

  Geometry-dependent empirical factor                         0.00000

  C-Matrix calculated in cspmtx

  In cspmtx, C-Matrix calculated using fitted potential

-------------------------------------------



 -------------------------------------------
  COSMO surface
  Area             =          590.995
  Volume           =          985.944
  Number of Points =         1433
 -------------------------------------------



 ======================
 RI Hartree-Fock Scheme
 ======================
  
 Fit Set Quality     : GOOD
 Integration Quality : GOOD
 Threshold Quality   : GOOD
 Response Quality    : DEFAULT
 Is Range Separated  :  F
 
 RIHartreeFock Dependency: number of modified vectors:          12
 cosmo_calcen: 0.5 (esolb+esolc) (Hartrees) =   -0.010113

 Solvation energy (screening term,uncorrected) =     -6.346022 kcal/mol

 Solvation energy (dispersion and cavitation terms) =      1.105115 kcal/mol
 Solvation Energy Contributions (Hartrees)
          esola   esolb+esolc
     0.01011303   -0.02022606
 esol last cycle   -0.01011303
  
 Hartree-Fock exchange energy:   -103.693888274771     
 cosmo_calcen: 0.5 (esolb+esolc) (Hartrees) =   -0.010113

 Solvation energy (screening term,uncorrected) =     -6.346023 kcal/mol

 Solvation energy (dispersion and cavitation terms) =      1.105115 kcal/mol
 Solvation Energy Contributions (Hartrees)
          esola   esolb+esolc
     0.01011303   -0.02022606
 esol last cycle   -0.01011303
  pauli hf:                              1.353647928545989         36.8346           849.43          3554.00
  elstat hf:                            -1.320028073208594        -35.9198          -828.33         -3465.73

 Energy gradients wrt nuclear displacements
 ==========================================

     Atom      Cartesian (a.u./angstrom)
                 X         Y         Z
 ----------------------------------------
     1 S     0.000000  0.000000  0.000323
     2 C    -0.000095  0.000000 -0.000019
     3 H    -0.000053  0.000006 -0.000045
     4 H    -0.000053 -0.000006 -0.000045
     5 C     0.000257  0.000000  0.000050
     6 H     0.000004 -0.000014  0.000025
     7 H     0.000004  0.000014  0.000025
     8 C     0.000095 -0.000000 -0.000019
     9 H     0.000053 -0.000006 -0.000045
    10 H     0.000053  0.000006 -0.000045
    11 C    -0.000257 -0.000000  0.000050
    12 H    -0.000004 -0.000014  0.000025
    13 H    -0.000004  0.000014  0.000025
    14 Cl   -0.000170  0.000000 -0.000153
    15 Cl    0.000170 -0.000000 -0.000153
 ----------------------------------------
 Mulliken charges used for AMS results%charges...

 dE(predicted):    -0.17912E-05, dE(actual):    -0.10780E-05, Trust radius:    0.200000, all in a.u.
 
---------------------------------------------------------
Geometry Convergence after Step   3       ** CONVERGED **
---------------------------------------------------------
current energy                               -3.35096249 Hartree
energy change                      -0.00000108     0.00015000    T
constrained gradient max            0.00032338     0.00100000    T
constrained gradient rms            0.00009285     0.00066667    T
gradient max                        0.00032338
gradient rms                        0.00009285
cart. step max                      0.00031404     0.00100000    T
cart. step rms                      0.00009099     0.00066667    T
 
Geometry optimization converged

Optimized geometry:
 
--------
Geometry
--------
Atoms
  Index Symbol   x (angstrom)   y (angstrom)   z (angstrom)
      1      S     0.00000000     0.00000000    -0.96409152       adf.R=1.792
      2      C     1.37501509    -0.00000000     0.21685130       adf.R=1.700
      3      H     1.30512517     0.88873637     0.84453259       adf.R=1.350
      4      H     1.30512517    -0.88873637     0.84453259       adf.R=1.350
      5      C     2.66916499    -0.00000000    -0.55880650       adf.R=1.700
      6      H     2.77232677     0.88838475    -1.17667721       adf.R=1.350
      7      H     2.77232677    -0.88838475    -1.17667721       adf.R=1.350
      8      C    -1.37501509     0.00000000     0.21685130       adf.R=1.700
      9      H    -1.30512517    -0.88873637     0.84453259       adf.R=1.350
     10      H    -1.30512517     0.88873637     0.84453259       adf.R=1.350
     11      C    -2.66916499     0.00000000    -0.55880650       adf.R=1.700
     12      H    -2.77232677     0.88838475    -1.17667721       adf.R=1.350
     13      H    -2.77232677    -0.88838475    -1.17667721       adf.R=1.350
     14     Cl     4.06535945    -0.00000000     0.56633977       adf.R=1.725
     15     Cl    -4.06535945     0.00000000     0.56633977       adf.R=1.725
 
Total System Charge             0.00000
Bonding info available!
 
Performing a single point calculation on the final geometry ...

 *** adf ***



 ===========================
 A T T A C H E D   F I L E S
 ===========================
  
 Restart/tmp/amstmp_ams_kid0.1554348570/GOStep3.rkf*** GOStep3 ***



 ===============================
 M O D E L   P A R A M E T E R S
 ===============================
  
 DENSITY FUNCTIONAL POTENTIAL (scf)
    Hybrid:                            PBE0                                    == Not Default ==

 SPIN  (restricted / unrestr.)
    Molecule:                          Restricted                               
    Fragments:                         Restricted                               

 OTHER ASPECTS
    Relativistic Corrections:          ---                                     == Not Default ==

    Nuclear Charge Density Model:      Point Charge Nuclei                      
    Core Treatment:                    Frozen Orbital(s)                        

    Hyperfine or Zeeman Interaction:   ---                                      

 SOLVATION
-------------------------------------------

  The Delley construction of COSMO surface surface is calculated

       Division Level for Surface Triangles (NDIV)                  3
       Final Division Level for Triangles (NFDIV)                   1
       Radius of the Solvent (RSOL)                           1.93000 angstr
  Dielectric Constant (EPSL)                                 78.39000

       COSMO equation is solved iteratively-               conjugate-gradient

       Maximun of Iterations for Charges (NCIX)                  1000
       Criterion for Charge convergence (CCNV)                1.0E-08

  COSMO charges included variationally in SCF

       COSMO included at every SCF cycle

  Geometry-dependent empirical factor                         0.00000

  C-Matrix calculated in cspmtx

  In cspmtx, C-Matrix calculated using fitted potential

-------------------------------------------




 ===============
 G E O M E T R Y  ***  3D  Molecule  ***
 ===============
  

 ATOMS
 =====                            X Y Z                    CHARGE                     RADIUS
                                (Angstrom)             Nucl     +Core       At.Mass (Angstrom)
                       --------------------------    ----------------       ------- ----------
    1  S               0.0000    0.0000   -0.9641     16.00     16.00       31.9721    1.7920
    2  C               1.3750   -0.0000    0.2169      6.00      6.00       12.0000    1.7000
    3  H               1.3051    0.8887    0.8445      1.00      1.00        1.0078    1.3500
    4  H               1.3051   -0.8887    0.8445      1.00      1.00        1.0078    1.3500
    5  C               2.6692   -0.0000   -0.5588      6.00      6.00       12.0000    1.7000
    6  H               2.7723    0.8884   -1.1767      1.00      1.00        1.0078    1.3500
    7  H               2.7723   -0.8884   -1.1767      1.00      1.00        1.0078    1.3500
    8  C              -1.3750    0.0000    0.2169      6.00      6.00       12.0000    1.7000
    9  H              -1.3051   -0.8887    0.8445      1.00      1.00        1.0078    1.3500
   10  H              -1.3051    0.8887    0.8445      1.00      1.00        1.0078    1.3500
   11  C              -2.6692    0.0000   -0.5588      6.00      6.00       12.0000    1.7000
   12  H              -2.7723    0.8884   -1.1767      1.00      1.00        1.0078    1.3500
   13  H              -2.7723   -0.8884   -1.1767      1.00      1.00        1.0078    1.3500
   14  Cl              4.0654   -0.0000    0.5663     17.00     17.00       34.9689    1.7250
   15  Cl             -4.0654    0.0000    0.5663     17.00     17.00       34.9689    1.7250


 FRAGMENTS
 =========                                     Atoms in this Fragment     Cart. coord.s (Angstrom)
                                               -------------------------------------------------------
    1  S                                                 1  S            0.0000    0.0000   -0.9641
    2  C                                                 2  C            1.3750   -0.0000    0.2169
    3  C                                                 5  C            2.6692   -0.0000   -0.5588
    4  C                                                 8  C           -1.3750    0.0000    0.2169
    5  C                                                11  C           -2.6692    0.0000   -0.5588
    6  H                                                 3  H            1.3051    0.8887    0.8445
    7  H                                                 4  H            1.3051   -0.8887    0.8445
    8  H                                                 6  H            2.7723    0.8884   -1.1767
    9  H                                                 7  H            2.7723   -0.8884   -1.1767
   10  H                                                 9  H           -1.3051   -0.8887    0.8445
   11  H                                                10  H           -1.3051    0.8887    0.8445
   12  H                                                12  H           -2.7723    0.8884   -1.1767
   13  H                                                13  H           -2.7723   -0.8884   -1.1767
   14  Cl                                               14  Cl           4.0654   -0.0000    0.5663
   15  Cl                                               15  Cl          -4.0654    0.0000    0.5663


 Interatomic Distance Matrix (Angstrom)
 --------------------------------------

   1)     0.000
   2)     1.813   0.000
   3)     2.401   1.090   0.000
   4)     2.401   1.090   1.777   0.000
   5)     2.700   1.509   2.149   2.149   0.000
   6)     2.919   2.164   2.498   3.065   1.087   0.000
   7)     2.919   2.164   3.065   2.498   1.087   1.777   0.000
   8)     1.813   2.750   2.893   2.893   4.118   4.464   4.464   0.000
   9)     2.401   2.893   3.158   2.610   4.307   4.886   4.551   1.090   0.000
  10)     2.401   2.893   2.610   3.158   4.307   4.551   4.886   1.090   1.777   0.000
  11)     2.700   4.118   4.307   4.307   5.338   5.548   5.548   1.509   2.149   2.149
          0.000
  12)     2.919   4.464   4.551   4.886   5.548   5.545   5.822   2.164   3.065   2.498
          1.087   0.000
  13)     2.919   4.464   4.886   4.551   5.548   5.822   5.545   2.164   2.498   3.065
          1.087   1.777   0.000
  14)     4.344   2.713   2.913   2.913   1.793   2.345   2.345   5.452   5.451   5.451
          6.828   7.112   7.112   0.000
  15)     4.344   5.452   5.451   5.451   6.828   7.112   7.112   2.713   2.913   2.913
          1.793   2.345   2.345   8.131   0.000

 Min. Distance =    1.0870
 Max. Distance =    8.1307



 =====================================
 S Y M M E T R Y ,   E L E C T R O N S
 =====================================
  
 Symmetry: C(2V)

 Irreducible Representations, including subspecies
 -------------------------------------------------
 A1
 A2
 B1
 B2

 Symmetry is NOT used when fitting density


 Configuration of Valence Electrons
 ==================================
 ( determined in the SCF procedure )

 Total:   82

 Net Charge: 0 (Nuclei minus Electrons)

 Aufbau principle for MO occupations will be applied through SCF cycle no.     150
 Thereafter, the program will assign electrons to MOs that are spatially
 similar to the occupied MOs in a "reference" cycle ("KeepOrbitals").
 The reference cycle is always the PREVIOUS cycle: it will evolve with
 the SCF procedure.
1
 ***************************************************************************************************



                                      ****************************************
                                      *  B U I L D : (Fragments, Functions)  *
                                      ****************************************
  



 =======
 S F O s  ***  (Symmetrized Fragment Orbitals)  ***
 =======
  
 SFOs are linear combinations of (valence) Fragment Orbitals (FOs), such that the SFOs transform as the
 irreducible representations of the (molecular) symmetry group. Each SFO is therefore characterized by
 an irrep of the molecule and by a few (or only one) generating FOs.
 The SFOs constitute a symmetry-adapted basis for the Fock matrix. The MO eigenvector coefficients in
 this basis provide a direct interpretation of the MOs in terms of Frontier Orbital Theory.

 The SFOs are combined with auxiliary Core Functions (CFs) to ensure orthogonalization on the (frozen)
 Core Orbitals (COs). The Core-orthogonalized SFOs (CSFOs) constitute the true Fock basis.

 The FOs, and hence also the (C)SFOs are combinations of the elementary basis functions (BAS). The basis
 functions that participate in the description of the SFOs depend on the irrep. The indices of the
 involved functions are printed below for each irrep.
 (The complete list of primitive basis functions is printed in another section)

 Total nr. of (C)SFOs (summation over all irreps) :   294

 NOTE: a (C)SFO that is defined as a combination of more than one FO is usually NOT normalized.



                                       === A1 ===
 Nr. of SFOs :   98
 Cartesian basis functions that participate in this irrep (total number =   252) :
      1     2     3     4    11    12    13     7    10    16
     19    22    28    23    26    38    31    36    39    99
     40   100    41   101    42   102    43   103    46   106
     49   109    52   112    44   104    47   107    50   110
     58   118    55   115    53    56   113   116    68   128
     64   124    61    66   121   126    59    62   119   122
     69   129    70   130    71   131    72   132    73   133
     76   136    79   139    82   142    74   134    77   137
     80   140    88   148    85   145    83    86   143   146
     98   158    94   154    91    96   151   156    89    92
    149   152   159   171   207   219   160   172   208   220
    161   173   209   221   164   176   212   224   162   163
    174   175   210   211   222   223   170   182   218   230
    167   169   179   181   215   217   227   229   165   166
    168   177   178   180   213   214   216   225   226   228
    183   195   231   243   184   196   232   244   185   197
    233   245   188   200   236   248   186   187   198   199
    234   235   246   247   194   206   242   254   191   193
    203   205   239   241   251   253   189   190   192   201
    202   204   237   238   240   249   250   252   255   293
    256   294   257   295   258   296   265   303   266   304
    267   305   261   299   264   302   270   308   273   311
    276   314   259   297   262   300   268   306   271   309
    274   312   282   320   279   317   277   280   315   318
    292   330   288   326   285   290   323   328   283   286
    321   324

    SFO  (index         Fragment          Generating    Expansion in Fragment Orbitals
  indx  incl.CFs)   Occup   Orb.Energy   FragmentType  Coeff.   Orbital     on Fragment
 --------------------------------------------------------------------------------------
     1       1      2.000     -89.098 au  S             1.00      1 S               1
                        (   -2424.489 eV)
     2       2      2.000      -8.072 au  S             1.00      2 S               1
                        (    -219.643 eV)
     3       3      2.000      -0.710 au  S             1.00      3 S               1
                        (     -19.307 eV)
     4       4       --         0.231 au  S             1.00      4 S               1
                        (       6.280 eV)
     5       5       --         2.125 au  S             1.00      5 S               1
                        (      57.822 eV)
     6       6       --        12.877 au  S             1.00      6 S               1
                        (     350.390 eV)
     7       7       --       200.702 au  S             1.00      7 S               1
                        (    5461.371 eV)
     8       8      2.000      -6.002 au  S             1.00      1 P:z             1
                        (    -163.314 eV)
     9       9      1.333      -0.279 au  S             1.00      2 P:z             1
                        (      -7.592 eV)
    10      10       --         0.156 au  S             1.00      3 P:z             1
                        (       4.258 eV)
    11      11       --         1.281 au  S             1.00      4 P:z             1
                        (      34.851 eV)
    12      12       --        13.316 au  S             1.00      5 P:z             1
                        (     362.345 eV)
    13      13       --         0.491 au  S             1.00      1 D:z2            1
                        (      13.368 eV)
    14      14       --         0.491 au  S             1.00      1 D:x2-y2         1
                        (      13.368 eV)
    15      15       --         1.336 au  S             1.00      1 F:z3            1
                        (      36.349 eV)
    16      16       --         1.336 au  S             1.00      1 F:z             1
                        (      36.349 eV)
    17      17      2.000     -10.406 au  C             0.71      1 S               2
                        (    -283.169 eV)               0.71      1 S               4
    18      18      2.000      -0.583 au  C             0.71      2 S               2
                        (     -15.858 eV)               0.71      2 S               4
    19      19       --         0.415 au  C             0.71      3 S               2
                        (      11.281 eV)               0.71      3 S               4
    20      20       --         5.555 au  C             0.71      4 S               2
                        (     151.157 eV)               0.71      4 S               4
    21      21       --        50.670 au  C             0.71      5 S               2
                        (    1378.798 eV)               0.71      5 S               4
    22      22      0.667      -0.186 au  C             0.71      1 P:x             2
                        (      -5.051 eV)              -0.71      1 P:x             4
    23      23       --         0.203 au  C             0.71      2 P:x             2
                        (       5.518 eV)              -0.71      2 P:x             4
    24      24       --         2.125 au  C             0.71      3 P:x             2
                        (      57.838 eV)              -0.71      3 P:x             4
    25      25      0.667      -0.186 au  C             0.71      1 P:z             2
                        (      -5.051 eV)               0.71      1 P:z             4
    26      26       --         0.203 au  C             0.71      2 P:z             2
                        (       5.518 eV)               0.71      2 P:z             4
    27      27       --         2.125 au  C             0.71      3 P:z             2
                        (      57.838 eV)               0.71      3 P:z             4
    28      28       --         1.300 au  C             0.71      1 D:z2            2
                        (      35.363 eV)               0.71      1 D:z2            4
    29      29       --         1.300 au  C             0.71      1 D:x2-y2         2
                        (      35.363 eV)               0.71      1 D:x2-y2         4
    30      30       --         1.300 au  C             0.71      1 D:xz            2
                        (      35.363 eV)              -0.71      1 D:xz            4
    31      31       --         4.097 au  C             0.71      1 F:z3            2
                        (     111.488 eV)               0.71      1 F:z3            4
    32      32       --         4.097 au  C             0.71      1 F:z             2
                        (     111.488 eV)               0.71      1 F:z             4
    33      33       --         4.097 au  C             0.71      1 F:z2x           2
                        (     111.488 eV)              -0.71      1 F:z2x           4
    34      34       --         4.097 au  C             0.71      1 F:x             2
                        (     111.488 eV)              -0.71      1 F:x             4
    35      35      2.000     -10.406 au  C             0.71      1 S               3
                        (    -283.169 eV)               0.71      1 S               5
    36      36      2.000      -0.583 au  C             0.71      2 S               3
                        (     -15.858 eV)               0.71      2 S               5
    37      37       --         0.415 au  C             0.71      3 S               3
                        (      11.281 eV)               0.71      3 S               5
    38      38       --         5.555 au  C             0.71      4 S               3
                        (     151.157 eV)               0.71      4 S               5
    39      39       --        50.670 au  C             0.71      5 S               3
                        (    1378.798 eV)               0.71      5 S               5
    40      40      0.667      -0.186 au  C             0.71      1 P:x             3
                        (      -5.051 eV)              -0.71      1 P:x             5
    41      41       --         0.203 au  C             0.71      2 P:x             3
                        (       5.518 eV)              -0.71      2 P:x             5
    42      42       --         2.125 au  C             0.71      3 P:x             3
                        (      57.838 eV)              -0.71      3 P:x             5
    43      43      0.667      -0.186 au  C             0.71      1 P:z             3
                        (      -5.051 eV)               0.71      1 P:z             5
    44      44       --         0.203 au  C             0.71      2 P:z             3
                        (       5.518 eV)               0.71      2 P:z             5
    45      45       --         2.125 au  C             0.71      3 P:z             3
                        (      57.838 eV)               0.71      3 P:z             5
    46      46       --         1.300 au  C             0.71      1 D:z2            3
                        (      35.363 eV)               0.71      1 D:z2            5
    47      47       --         1.300 au  C             0.71      1 D:x2-y2         3
                        (      35.363 eV)               0.71      1 D:x2-y2         5
    48      48       --         1.300 au  C             0.71      1 D:xz            3
                        (      35.363 eV)              -0.71      1 D:xz            5
    49      49       --         4.097 au  C             0.71      1 F:z3            3
                        (     111.488 eV)               0.71      1 F:z3            5
    50      50       --         4.097 au  C             0.71      1 F:z             3
                        (     111.488 eV)               0.71      1 F:z             5
    51      51       --         4.097 au  C             0.71      1 F:z2x           3
                        (     111.488 eV)              -0.71      1 F:z2x           5
    52      52       --         4.097 au  C             0.71      1 F:x             3
                        (     111.488 eV)              -0.71      1 F:x             5
    53      53      1.000      -0.242 au  H             0.50      1 S               6
                        (      -6.582 eV)               0.50      1 S               7
                                                        0.50      1 S              10
                                                        0.50      1 S              11
    54      54       --         0.113 au  H             0.50      2 S               6
                        (       3.073 eV)               0.50      2 S               7
                                                        0.50      2 S              10
                                                        0.50      2 S              11
    55      55       --         1.599 au  H             0.50      3 S               6
                        (      43.507 eV)               0.50      3 S               7
                                                        0.50      3 S              10
                                                        0.50      3 S              11
    56      56       --         0.445 au  H             0.50      1 P:x             6
                        (      12.103 eV)               0.50      1 P:x             7
                                                       -0.50      1 P:x            10
                                                       -0.50      1 P:x            11
    57      57       --         0.445 au  H             0.50      1 P:y             6
                        (      12.103 eV)              -0.50      1 P:y             7
                                                       -0.50      1 P:y            10
                                                        0.50      1 P:y            11
    58      58       --         0.445 au  H             0.50      1 P:z             6
                        (      12.103 eV)               0.50      1 P:z             7
                                                        0.50      1 P:z            10
                                                        0.50      1 P:z            11
    59      59       --         2.628 au  H             0.50      1 D:z2            6
                        (      71.513 eV)               0.50      1 D:z2            7
                                                        0.50      1 D:z2           10
                                                        0.50      1 D:z2           11
    60      60       --         2.628 au  H             0.50      1 D:x2-y2         6
                        (      71.513 eV)               0.50      1 D:x2-y2         7
                                                        0.50      1 D:x2-y2        10
                                                        0.50      1 D:x2-y2        11
    61      61       --         2.628 au  H             0.50      1 D:xy            6
                        (      71.513 eV)              -0.50      1 D:xy            7
                                                        0.50      1 D:xy           10
                                                       -0.50      1 D:xy           11
    62      62       --         2.628 au  H             0.50      1 D:xz            6
                        (      71.513 eV)               0.50      1 D:xz            7
                                                       -0.50      1 D:xz           10
                                                       -0.50      1 D:xz           11
    63      63       --         2.628 au  H             0.50      1 D:yz            6
                        (      71.513 eV)              -0.50      1 D:yz            7
                                                       -0.50      1 D:yz           10
                                                        0.50      1 D:yz           11
    64      64      1.000      -0.242 au  H             0.50      1 S               8
                        (      -6.582 eV)               0.50      1 S               9
                                                        0.50      1 S              12
                                                        0.50      1 S              13
    65      65       --         0.113 au  H             0.50      2 S               8
                        (       3.073 eV)               0.50      2 S               9
                                                        0.50      2 S              12
                                                        0.50      2 S              13
    66      66       --         1.599 au  H             0.50      3 S               8
                        (      43.507 eV)               0.50      3 S               9
                                                        0.50      3 S              12
                                                        0.50      3 S              13
    67      67       --         0.445 au  H             0.50      1 P:x             8
                        (      12.103 eV)               0.50      1 P:x             9
                                                       -0.50      1 P:x            12
                                                       -0.50      1 P:x            13
    68      68       --         0.445 au  H             0.50      1 P:y             8
                        (      12.103 eV)              -0.50      1 P:y             9
                                                        0.50      1 P:y            12
                                                       -0.50      1 P:y            13
    69      69       --         0.445 au  H             0.50      1 P:z             8
                        (      12.103 eV)               0.50      1 P:z             9
                                                        0.50      1 P:z            12
                                                        0.50      1 P:z            13
    70      70       --         2.628 au  H             0.50      1 D:z2            8
                        (      71.513 eV)               0.50      1 D:z2            9
                                                        0.50      1 D:z2           12
                                                        0.50      1 D:z2           13
    71      71       --         2.628 au  H             0.50      1 D:x2-y2         8
                        (      71.513 eV)               0.50      1 D:x2-y2         9
                                                        0.50      1 D:x2-y2        12
                                                        0.50      1 D:x2-y2        13
    72      72       --         2.628 au  H             0.50      1 D:xy            8
                        (      71.513 eV)              -0.50      1 D:xy            9
                                                       -0.50      1 D:xy           12
                                                        0.50      1 D:xy           13
    73      73       --         2.628 au  H             0.50      1 D:xz            8
                        (      71.513 eV)               0.50      1 D:xz            9
                                                       -0.50      1 D:xz           12
                                                       -0.50      1 D:xz           13
    74      74       --         2.628 au  H             0.50      1 D:yz            8
                        (      71.513 eV)              -0.50      1 D:yz            9
                                                        0.50      1 D:yz           12
                                                       -0.50      1 D:yz           13
    75      75      2.000    -101.760 au  Cl            0.71      1 S              14
                        (   -2769.023 eV)               0.71      1 S              15
    76      76      2.000      -9.584 au  Cl            0.71      2 S              14
                        (    -260.807 eV)               0.71      2 S              15
    77      77      2.000      -0.848 au  Cl            0.71      3 S              14
                        (     -23.065 eV)               0.71      3 S              15
    78      78       --         0.237 au  Cl            0.71      4 S              14
                        (       6.461 eV)               0.71      4 S              15
    79      79       --         2.095 au  Cl            0.71      5 S              14
                        (      57.011 eV)               0.71      5 S              15
    80      80       --        12.974 au  Cl            0.71      6 S              14
                        (     353.034 eV)               0.71      6 S              15
    81      81       --       215.823 au  Cl            0.71      7 S              14
                        (    5872.843 eV)               0.71      7 S              15
    82      82      2.000      -7.312 au  Cl            0.71      1 P:x            14
                        (    -198.964 eV)              -0.71      1 P:x            15
    83      83      1.667      -0.356 au  Cl            0.71      2 P:x            14
                        (      -9.692 eV)              -0.71      2 P:x            15
    84      84       --         0.265 au  Cl            0.71      3 P:x            14
                        (       7.201 eV)              -0.71      3 P:x            15
    85      85       --         2.209 au  Cl            0.71      4 P:x            14
                        (      60.097 eV)              -0.71      4 P:x            15
    86      86       --        19.178 au  Cl            0.71      5 P:x            14
                        (     521.872 eV)              -0.71      5 P:x            15
    87      87      2.000      -7.312 au  Cl            0.71      1 P:z            14
                        (    -198.964 eV)               0.71      1 P:z            15
    88      88      1.667      -0.356 au  Cl            0.71      2 P:z            14
                        (      -9.692 eV)               0.71      2 P:z            15
    89      89       --         0.265 au  Cl            0.71      3 P:z            14
                        (       7.201 eV)               0.71      3 P:z            15
    90      90       --         2.209 au  Cl            0.71      4 P:z            14
                        (      60.097 eV)               0.71      4 P:z            15
    91      91       --        19.178 au  Cl            0.71      5 P:z            14
                        (     521.872 eV)               0.71      5 P:z            15
    92      92       --         0.442 au  Cl            0.71      1 D:z2           14
                        (      12.026 eV)               0.71      1 D:z2           15
    93      93       --         0.442 au  Cl            0.71      1 D:x2-y2        14
                        (      12.026 eV)               0.71      1 D:x2-y2        15
    94      94       --         0.442 au  Cl            0.71      1 D:xz           14
                        (      12.026 eV)              -0.71      1 D:xz           15
    95      95       --         1.250 au  Cl            0.71      1 F:z3           14
                        (      34.015 eV)               0.71      1 F:z3           15
    96      96       --         1.250 au  Cl            0.71      1 F:z            14
                        (      34.015 eV)               0.71      1 F:z            15
    97      97       --         1.250 au  Cl            0.71      1 F:z2x          14
                        (      34.015 eV)              -0.71      1 F:z2x          15
    98      98       --         1.250 au  Cl            0.71      1 F:x            14
                        (      34.015 eV)              -0.71      1 F:x            15



                                       === A2 ===
 Nr. of SFOs :   50
 Cartesian basis functions that participate in this irrep (total number =   156) :
     24    33    45   105    48   108    51   111    57   117
     54   114    67   127    63   123    60    65   120   125
     75   135    78   138    81   141    87   147    84   144
     97   157    93   153    90    95   150   155   159   171
    207   219   160   172   208   220   161   173   209   221
    164   176   212   224   162   163   174   175   210   211
    222   223   170   182   218   230   167   169   179   181
    215   217   227   229   165   166   168   177   178   180
    213   214   216   225   226   228   183   195   231   243
    184   196   232   244   185   197   233   245   188   200
    236   248   186   187   198   199   234   235   246   247
    194   206   242   254   191   193   203   205   239   241
    251   253   189   190   192   201   202   204   237   238
    240   249   250   252   260   298   263   301   269   307
    272   310   275   313   281   319   278   316   291   329
    287   325   284   289   322   327

    SFO  (index         Fragment          Generating    Expansion in Fragment Orbitals
  indx  incl.CFs)   Occup   Orb.Energy   FragmentType  Coeff.   Orbital     on Fragment
 --------------------------------------------------------------------------------------
     1       1       --         0.491 au  S             1.00      1 D:xy            1
                        (      13.368 eV)
     2       2       --         1.336 au  S             1.00      1 F:xyz           1
                        (      36.349 eV)
     3       3      0.667      -0.186 au  C             0.71      1 P:y             2
                        (      -5.051 eV)              -0.71      1 P:y             4
     4       4       --         0.203 au  C             0.71      2 P:y             2
                        (       5.518 eV)              -0.71      2 P:y             4
     5       5       --         2.125 au  C             0.71      3 P:y             2
                        (      57.838 eV)              -0.71      3 P:y             4
     6       6       --         1.300 au  C             0.71      1 D:xy            2
                        (      35.363 eV)               0.71      1 D:xy            4
     7       7       --         1.300 au  C             0.71      1 D:yz            2
                        (      35.363 eV)              -0.71      1 D:yz            4
     8       8       --         4.097 au  C             0.71      1 F:xyz           2
                        (     111.488 eV)               0.71      1 F:xyz           4
     9       9       --         4.097 au  C             0.71      1 F:z2y           2
                        (     111.488 eV)              -0.71      1 F:z2y           4
    10      10       --         4.097 au  C             0.71      1 F:y             2
                        (     111.488 eV)              -0.71      1 F:y             4
    11      11      0.667      -0.186 au  C             0.71      1 P:y             3
                        (      -5.051 eV)              -0.71      1 P:y             5
    12      12       --         0.203 au  C             0.71      2 P:y             3
                        (       5.518 eV)              -0.71      2 P:y             5
    13      13       --         2.125 au  C             0.71      3 P:y             3
                        (      57.838 eV)              -0.71      3 P:y             5
    14      14       --         1.300 au  C             0.71      1 D:xy            3
                        (      35.363 eV)               0.71      1 D:xy            5
    15      15       --         1.300 au  C             0.71      1 D:yz            3
                        (      35.363 eV)              -0.71      1 D:yz            5
    16      16       --         4.097 au  C             0.71      1 F:xyz           3
                        (     111.488 eV)               0.71      1 F:xyz           5
    17      17       --         4.097 au  C             0.71      1 F:z2y           3
                        (     111.488 eV)              -0.71      1 F:z2y           5
    18      18       --         4.097 au  C             0.71      1 F:y             3
                        (     111.488 eV)              -0.71      1 F:y             5
    19      19      1.000      -0.242 au  H             0.50      1 S               6
                        (      -6.582 eV)              -0.50      1 S               7
                                                        0.50      1 S              10
                                                       -0.50      1 S              11
    20      20       --         0.113 au  H             0.50      2 S               6
                        (       3.073 eV)              -0.50      2 S               7
                                                        0.50      2 S              10
                                                       -0.50      2 S              11
    21      21       --         1.599 au  H             0.50      3 S               6
                        (      43.507 eV)              -0.50      3 S               7
                                                        0.50      3 S              10
                                                       -0.50      3 S              11
    22      22       --         0.445 au  H             0.50      1 P:x             6
                        (      12.103 eV)              -0.50      1 P:x             7
                                                       -0.50      1 P:x            10
                                                        0.50      1 P:x            11
    23      23       --         0.445 au  H             0.50      1 P:y             6
                        (      12.103 eV)               0.50      1 P:y             7
                                                       -0.50      1 P:y            10
                                                       -0.50      1 P:y            11
    24      24       --         0.445 au  H             0.50      1 P:z             6
                        (      12.103 eV)              -0.50      1 P:z             7
                                                        0.50      1 P:z            10
                                                       -0.50      1 P:z            11
    25      25       --         2.628 au  H             0.50      1 D:z2            6
                        (      71.513 eV)              -0.50      1 D:z2            7
                                                        0.50      1 D:z2           10
                                                       -0.50      1 D:z2           11
    26      26       --         2.628 au  H             0.50      1 D:x2-y2         6
                        (      71.513 eV)              -0.50      1 D:x2-y2         7
                                                        0.50      1 D:x2-y2        10
                                                       -0.50      1 D:x2-y2        11
    27      27       --         2.628 au  H             0.50      1 D:xy            6
                        (      71.513 eV)               0.50      1 D:xy            7
                                                        0.50      1 D:xy           10
                                                        0.50      1 D:xy           11
    28      28       --         2.628 au  H             0.50      1 D:xz            6
                        (      71.513 eV)              -0.50      1 D:xz            7
                                                       -0.50      1 D:xz           10
                                                        0.50      1 D:xz           11
    29      29       --         2.628 au  H             0.50      1 D:yz            6
                        (      71.513 eV)               0.50      1 D:yz            7
                                                       -0.50      1 D:yz           10
                                                       -0.50      1 D:yz           11
    30      30      1.000      -0.242 au  H             0.50      1 S               8
                        (      -6.582 eV)              -0.50      1 S               9
                                                       -0.50      1 S              12
                                                        0.50      1 S              13
    31      31       --         0.113 au  H             0.50      2 S               8
                        (       3.073 eV)              -0.50      2 S               9
                                                       -0.50      2 S              12
                                                        0.50      2 S              13
    32      32       --         1.599 au  H             0.50      3 S               8
                        (      43.507 eV)              -0.50      3 S               9
                                                       -0.50      3 S              12
                                                        0.50      3 S              13
    33      33       --         0.445 au  H             0.50      1 P:x             8
                        (      12.103 eV)              -0.50      1 P:x             9
                                                        0.50      1 P:x            12
                                                       -0.50      1 P:x            13
    34      34       --         0.445 au  H             0.50      1 P:y             8
                        (      12.103 eV)               0.50      1 P:y             9
                                                       -0.50      1 P:y            12
                                                       -0.50      1 P:y            13
    35      35       --         0.445 au  H             0.50      1 P:z             8
                        (      12.103 eV)              -0.50      1 P:z             9
                                                       -0.50      1 P:z            12
                                                        0.50      1 P:z            13
    36      36       --         2.628 au  H             0.50      1 D:z2            8
                        (      71.513 eV)              -0.50      1 D:z2            9
                                                       -0.50      1 D:z2           12
                                                        0.50      1 D:z2           13
    37      37       --         2.628 au  H             0.50      1 D:x2-y2         8
                        (      71.513 eV)              -0.50      1 D:x2-y2         9
                                                       -0.50      1 D:x2-y2        12
                                                        0.50      1 D:x2-y2        13
    38      38       --         2.628 au  H             0.50      1 D:xy            8
                        (      71.513 eV)               0.50      1 D:xy            9
                                                        0.50      1 D:xy           12
                                                        0.50      1 D:xy           13
    39      39       --         2.628 au  H             0.50      1 D:xz            8
                        (      71.513 eV)              -0.50      1 D:xz            9
                                                        0.50      1 D:xz           12
                                                       -0.50      1 D:xz           13
    40      40       --         2.628 au  H             0.50      1 D:yz            8
                        (      71.513 eV)               0.50      1 D:yz            9
                                                       -0.50      1 D:yz           12
                                                       -0.50      1 D:yz           13
    41      41      2.000      -7.312 au  Cl            0.71      1 P:y            14
                        (    -198.964 eV)              -0.71      1 P:y            15
    42      42      1.667      -0.356 au  Cl            0.71      2 P:y            14
                        (      -9.692 eV)              -0.71      2 P:y            15
    43      43       --         0.265 au  Cl            0.71      3 P:y            14
                        (       7.201 eV)              -0.71      3 P:y            15
    44      44       --         2.209 au  Cl            0.71      4 P:y            14
                        (      60.097 eV)              -0.71      4 P:y            15
    45      45       --        19.178 au  Cl            0.71      5 P:y            14
                        (     521.872 eV)              -0.71      5 P:y            15
    46      46       --         0.442 au  Cl            0.71      1 D:xy           14
                        (      12.026 eV)               0.71      1 D:xy           15
    47      47       --         0.442 au  Cl            0.71      1 D:yz           14
                        (      12.026 eV)              -0.71      1 D:yz           15
    48      48       --         1.250 au  Cl            0.71      1 F:xyz          14
                        (      34.015 eV)               0.71      1 F:xyz          15
    49      49       --         1.250 au  Cl            0.71      1 F:z2y          14
                        (      34.015 eV)              -0.71      1 F:z2y          15
    50      50       --         1.250 au  Cl            0.71      1 F:y            14
                        (      34.015 eV)              -0.71      1 F:y            15



                                       === B1 ===
 Nr. of SFOs :   90
 Cartesian basis functions that participate in this irrep (total number =   243) :
      5     8    14    17    20    25    34    29    32    39
     99    40   100    41   101    42   102    43   103    46
    106    49   109    52   112    44   104    47   107    50
    110    58   118    55   115    53    56   113   116    68
    128    64   124    61    66   121   126    59    62   119
    122    69   129    70   130    71   131    72   132    73
    133    76   136    79   139    82   142    74   134    77
    137    80   140    88   148    85   145    83    86   143
    146    98   158    94   154    91    96   151   156    89
     92   149   152   159   171   207   219   160   172   208
    220   161   173   209   221   164   176   212   224   162
    163   174   175   210   211   222   223   170   182   218
    230   167   169   179   181   215   217   227   229   165
    166   168   177   178   180   213   214   216   225   226
    228   183   195   231   243   184   196   232   244   185
    197   233   245   188   200   236   248   186   187   198
    199   234   235   246   247   194   206   242   254   191
    193   203   205   239   241   251   253   189   190   192
    201   202   204   237   238   240   249   250   252   255
    293   256   294   257   295   258   296   265   303   266
    304   267   305   261   299   264   302   270   308   273
    311   276   314   259   297   262   300   268   306   271
    309   274   312   282   320   279   317   277   280   315
    318   292   330   288   326   285   290   323   328   283
    286   321   324

    SFO  (index         Fragment          Generating    Expansion in Fragment Orbitals
  indx  incl.CFs)   Occup   Orb.Energy   FragmentType  Coeff.   Orbital     on Fragment
 --------------------------------------------------------------------------------------
     1       1      2.000      -6.002 au  S             1.00      1 P:x             1
                        (    -163.314 eV)
     2       2      1.333      -0.279 au  S             1.00      2 P:x             1
                        (      -7.592 eV)
     3       3       --         0.156 au  S             1.00      3 P:x             1
                        (       4.258 eV)
     4       4       --         1.281 au  S             1.00      4 P:x             1
                        (      34.851 eV)
     5       5       --        13.316 au  S             1.00      5 P:x             1
                        (     362.345 eV)
     6       6       --         0.491 au  S             1.00      1 D:xz            1
                        (      13.368 eV)
     7       7       --         1.336 au  S             1.00      1 F:z2x           1
                        (      36.349 eV)
     8       8       --         1.336 au  S             1.00      1 F:x             1
                        (      36.349 eV)
     9       9      2.000     -10.406 au  C             0.71      1 S               2
                        (    -283.169 eV)              -0.71      1 S               4
    10      10      2.000      -0.583 au  C             0.71      2 S               2
                        (     -15.858 eV)              -0.71      2 S               4
    11      11       --         0.415 au  C             0.71      3 S               2
                        (      11.281 eV)              -0.71      3 S               4
    12      12       --         5.555 au  C             0.71      4 S               2
                        (     151.157 eV)              -0.71      4 S               4
    13      13       --        50.670 au  C             0.71      5 S               2
                        (    1378.798 eV)              -0.71      5 S               4
    14      14      0.667      -0.186 au  C             0.71      1 P:x             2
                        (      -5.051 eV)               0.71      1 P:x             4
    15      15       --         0.203 au  C             0.71      2 P:x             2
                        (       5.518 eV)               0.71      2 P:x             4
    16      16       --         2.125 au  C             0.71      3 P:x             2
                        (      57.838 eV)               0.71      3 P:x             4
    17      17      0.667      -0.186 au  C             0.71      1 P:z             2
                        (      -5.051 eV)              -0.71      1 P:z             4
    18      18       --         0.203 au  C             0.71      2 P:z             2
                        (       5.518 eV)              -0.71      2 P:z             4
    19      19       --         2.125 au  C             0.71      3 P:z             2
                        (      57.838 eV)              -0.71      3 P:z             4
    20      20       --         1.300 au  C             0.71      1 D:z2            2
                        (      35.363 eV)              -0.71      1 D:z2            4
    21      21       --         1.300 au  C             0.71      1 D:x2-y2         2
                        (      35.363 eV)              -0.71      1 D:x2-y2         4
    22      22       --         1.300 au  C             0.71      1 D:xz            2
                        (      35.363 eV)               0.71      1 D:xz            4
    23      23       --         4.097 au  C             0.71      1 F:z3            2
                        (     111.488 eV)              -0.71      1 F:z3            4
    24      24       --         4.097 au  C             0.71      1 F:z             2
                        (     111.488 eV)              -0.71      1 F:z             4
    25      25       --         4.097 au  C             0.71      1 F:z2x           2
                        (     111.488 eV)               0.71      1 F:z2x           4
    26      26       --         4.097 au  C             0.71      1 F:x             2
                        (     111.488 eV)               0.71      1 F:x             4
    27      27      2.000     -10.406 au  C             0.71      1 S               3
                        (    -283.169 eV)              -0.71      1 S               5
    28      28      2.000      -0.583 au  C             0.71      2 S               3
                        (     -15.858 eV)              -0.71      2 S               5
    29      29       --         0.415 au  C             0.71      3 S               3
                        (      11.281 eV)              -0.71      3 S               5
    30      30       --         5.555 au  C             0.71      4 S               3
                        (     151.157 eV)              -0.71      4 S               5
    31      31       --        50.670 au  C             0.71      5 S               3
                        (    1378.798 eV)              -0.71      5 S               5
    32      32      0.667      -0.186 au  C             0.71      1 P:x             3
                        (      -5.051 eV)               0.71      1 P:x             5
    33      33       --         0.203 au  C             0.71      2 P:x             3
                        (       5.518 eV)               0.71      2 P:x             5
    34      34       --         2.125 au  C             0.71      3 P:x             3
                        (      57.838 eV)               0.71      3 P:x             5
    35      35      0.667      -0.186 au  C             0.71      1 P:z             3
                        (      -5.051 eV)              -0.71      1 P:z             5
    36      36       --         0.203 au  C             0.71      2 P:z             3
                        (       5.518 eV)              -0.71      2 P:z             5
    37      37       --         2.125 au  C             0.71      3 P:z             3
                        (      57.838 eV)              -0.71      3 P:z             5
    38      38       --         1.300 au  C             0.71      1 D:z2            3
                        (      35.363 eV)              -0.71      1 D:z2            5
    39      39       --         1.300 au  C             0.71      1 D:x2-y2         3
                        (      35.363 eV)              -0.71      1 D:x2-y2         5
    40      40       --         1.300 au  C             0.71      1 D:xz            3
                        (      35.363 eV)               0.71      1 D:xz            5
    41      41       --         4.097 au  C             0.71      1 F:z3            3
                        (     111.488 eV)              -0.71      1 F:z3            5
    42      42       --         4.097 au  C             0.71      1 F:z             3
                        (     111.488 eV)              -0.71      1 F:z             5
    43      43       --         4.097 au  C             0.71      1 F:z2x           3
                        (     111.488 eV)               0.71      1 F:z2x           5
    44      44       --         4.097 au  C             0.71      1 F:x             3
                        (     111.488 eV)               0.71      1 F:x             5
    45      45      1.000      -0.242 au  H             0.50      1 S               6
                        (      -6.582 eV)               0.50      1 S               7
                                                       -0.50      1 S              10
                                                       -0.50      1 S              11
    46      46       --         0.113 au  H             0.50      2 S               6
                        (       3.073 eV)               0.50      2 S               7
                                                       -0.50      2 S              10
                                                       -0.50      2 S              11
    47      47       --         1.599 au  H             0.50      3 S               6
                        (      43.507 eV)               0.50      3 S               7
                                                       -0.50      3 S              10
                                                       -0.50      3 S              11
    48      48       --         0.445 au  H             0.50      1 P:x             6
                        (      12.103 eV)               0.50      1 P:x             7
                                                        0.50      1 P:x            10
                                                        0.50      1 P:x            11
    49      49       --         0.445 au  H             0.50      1 P:y             6
                        (      12.103 eV)              -0.50      1 P:y             7
                                                        0.50      1 P:y            10
                                                       -0.50      1 P:y            11
    50      50       --         0.445 au  H             0.50      1 P:z             6
                        (      12.103 eV)               0.50      1 P:z             7
                                                       -0.50      1 P:z            10
                                                       -0.50      1 P:z            11
    51      51       --         2.628 au  H             0.50      1 D:z2            6
[...]
                               0.672    -0.165    -0.722
                               0.715    -0.112     0.690
                        -----------------------------------
 
================================================================================
 
 
===  TOTAL NMR SHIELDING TENSOR (ppm)
 
                        ***********************************
                        CARTESIAN AXIS REPRESENTATION

                        ==== total shielding tensor
                        -----------------------------------
                              29.543    -1.009    -1.655
                              -1.009    25.958    -5.446
                              -1.655    -5.446    28.368
                        -----------------------------------
                                  isotropic =     27.956

                        ***********************************
                        -----------------------------------
                        PRINCIPAL AXIS REPRESENTATION

                        ==== Principal components:

                              21.185    29.800    32.883
 
                        ==== Principal Axis System:

                              -0.214     0.954    -0.211
                              -0.754    -0.299    -0.585
                              -0.621     0.034     0.783
                        -----------------------------------
################################################################################
********************************************************************************
****  N U C L E U S : H(13)
 
 ADF-GUI atom: H(13)
 Internal NMR numbering of atoms: H(13)
 
 
================================================================================
 
 
===  PARAMAGNETIC NMR SHIELDING TENSORS (ppm)
 
    ===     paramagnetic b^(1) tensor       ===     paramagnetic u^(1) tensor
    -----------------------------------     -----------------------------------
           0.000     0.000     0.000               4.460   -14.068    -9.999
           0.000     0.000     0.000             -14.068     3.409   -10.057
           0.000     0.000     0.000              -9.999   -10.057     1.118
    -----------------------------------     -----------------------------------
              isotropic =      0.000                  isotropic =      2.995

    ===     paramagnetic s^(1) tensor       ===     paramagnetic gauge tensor
    -----------------------------------     -----------------------------------
          -3.101    15.089     9.667              -0.321    -0.615    -0.312
          15.089    -4.860     9.670              -0.615    -2.031    -0.259
           9.667     9.670    -1.647              -0.312    -0.259     0.124
    -----------------------------------     -----------------------------------
              isotropic =     -3.202                  isotropic =     -0.743

                        ***********************************
                        CARTESIAN AXIS REPRESENTATION

                        ==== total paramagnetic tensor
                        -----------------------------------
                               1.037     0.406    -0.643
                               0.406    -3.482    -0.646
                              -0.643    -0.646    -0.405
                        -----------------------------------
                                  isotropic =     -0.950

                        ***********************************
                        -----------------------------------
                        PRINCIPAL AXIS REPRESENTATION

                        ==== Principal components:

                              -3.629    -0.582     1.361
 
                        ==== Principal Axis System:

                               0.060     0.397    -0.916
                              -0.981    -0.146    -0.128
                              -0.185     0.906     0.380
                        -----------------------------------
 
================================================================================
 
 
===  DIAMAGNETIC NMR SHIELDING TENSORS (ppm)
 
    ===       diamagnetic core tensor       ===    diamagnetic valence tensor
    -----------------------------------     -----------------------------------
           0.000     0.000     0.000              28.513     0.574    -1.020
           0.000     0.000     0.000               0.574    29.443     6.094
           0.000     0.000     0.000              -1.020     6.094    28.791
    -----------------------------------     -----------------------------------
              isotropic =      0.000                  isotropic =     28.916

                        ***********************************
                        CARTESIAN AXIS REPRESENTATION

                        ==== total diamagnetic tensor
                        -----------------------------------
                              28.513     0.574    -1.020
                               0.574    29.443     6.094
                              -1.020     6.094    28.791
                        -----------------------------------
                                  isotropic =     28.916

                        ***********************************
                        -----------------------------------
                        PRINCIPAL AXIS REPRESENTATION

                        ==== Principal components:

                              22.789    28.726    35.232
 
                        ==== Principal Axis System:

                               0.195     0.980     0.043
                              -0.672     0.165    -0.722
                               0.715    -0.112    -0.690
                        -----------------------------------
 
================================================================================
 
 
===  TOTAL NMR SHIELDING TENSOR (ppm)
 
                        ***********************************
                        CARTESIAN AXIS REPRESENTATION

                        ==== total shielding tensor
                        -----------------------------------
                              29.550     0.980    -1.663
                               0.980    25.961     5.447
                              -1.663     5.447    28.386
                        -----------------------------------
                                  isotropic =     27.966

                        ***********************************
                        -----------------------------------
                        PRINCIPAL AXIS REPRESENTATION

                        ==== Principal components:

                              21.201    29.790    32.907
 
                        ==== Principal Axis System:

                               0.212     0.953    -0.218
                              -0.754     0.301     0.583
                               0.621     0.040     0.783
                        -----------------------------------
################################################################################
********************************************************************************
****  N U C L E U S : Cl(14)
 
 ADF-GUI atom: Cl(14)
 Internal NMR numbering of atoms: Cl(14)
 
 
================================================================================
 
 
===  PARAMAGNETIC NMR SHIELDING TENSORS (ppm)
 
    ===     paramagnetic b^(1) tensor       ===     paramagnetic u^(1) tensor
    -----------------------------------     -----------------------------------
           0.000     0.000     0.000            -195.639    -0.466   263.765
           0.000     0.000     0.000              -0.466  -526.021     1.239
           0.000     0.000     0.000             263.765     1.239  -280.110
    -----------------------------------     -----------------------------------
              isotropic =      0.000                  isotropic =   -333.923

    ===     paramagnetic s^(1) tensor       ===     paramagnetic gauge tensor
    -----------------------------------     -----------------------------------
          54.211     0.196  -127.972              -0.668    -0.007     1.132
           0.196    61.324    -0.253              -0.007    -2.480     0.015
        -127.972    -0.253     6.884               1.132     0.015    -2.941
    -----------------------------------     -----------------------------------
              isotropic =     40.806                  isotropic =     -2.029

                        ***********************************
                        CARTESIAN AXIS REPRESENTATION

                        ==== total paramagnetic tensor
                        -----------------------------------
                            -142.096    -0.278   136.925
                              -0.278  -467.176     1.002
                             136.925     1.002  -276.167
                        -----------------------------------
                                  isotropic =   -295.146

                        ***********************************
                        -----------------------------------
                        PRINCIPAL AXIS REPRESENTATION

                        ==== Principal components:

                            -467.186  -361.576   -56.678
 
                        ==== Principal Axis System:

                              -0.004    -0.529    -0.848
                              -1.000     0.009    -0.001
                               0.008     0.848    -0.529
                        -----------------------------------
 
================================================================================
 
 
===  DIAMAGNETIC NMR SHIELDING TENSORS (ppm)
 
    ===       diamagnetic core tensor       ===    diamagnetic valence tensor
    -----------------------------------     -----------------------------------
           0.000     0.000     0.000            1149.949     0.000     4.570
           0.000     0.000     0.000               0.000  1142.557    -0.000
           0.000     0.000     0.000               4.570    -0.000  1146.211
    -----------------------------------     -----------------------------------
              isotropic =      0.000                  isotropic =   1146.239

                        ***********************************
                        CARTESIAN AXIS REPRESENTATION

                        ==== total diamagnetic tensor
                        -----------------------------------
                            1149.949     0.000     4.570
                               0.000  1142.557    -0.000
                               4.570    -0.000  1146.211
                        -----------------------------------
                                  isotropic =   1146.239

                        ***********************************
                        -----------------------------------
                        PRINCIPAL AXIS REPRESENTATION

                        ==== Principal components:

                            1142.557  1143.143  1153.017
 
                        ==== Principal Axis System:

                              -0.000    -0.557     0.830
                               1.000    -0.000    -0.000
                               0.000     0.830     0.557
                        -----------------------------------
 
================================================================================
 
 
===  TOTAL NMR SHIELDING TENSOR (ppm)
 
                        ***********************************
                        CARTESIAN AXIS REPRESENTATION

                        ==== total shielding tensor
                        -----------------------------------
                            1007.853    -0.278   141.494
                              -0.278   675.381     1.002
                             141.494     1.002   870.044
                        -----------------------------------
                                  isotropic =    851.093

                        ***********************************
                        -----------------------------------
                        PRINCIPAL AXIS REPRESENTATION

                        ==== Principal components:

                             675.372   781.578  1096.329
 
                        ==== Principal Axis System:

                              -0.004    -0.530    -0.848
                              -1.000     0.009    -0.001
                               0.008     0.848    -0.530
                        -----------------------------------
################################################################################
********************************************************************************
****  N U C L E U S : Cl(15)
 
 ADF-GUI atom: Cl(15)
 Internal NMR numbering of atoms: Cl(15)
 
 
================================================================================
 
 
===  PARAMAGNETIC NMR SHIELDING TENSORS (ppm)
 
    ===     paramagnetic b^(1) tensor       ===     paramagnetic u^(1) tensor
    -----------------------------------     -----------------------------------
           0.000     0.000     0.000            -195.639     0.466  -263.765
           0.000     0.000     0.000               0.466  -526.021     1.239
           0.000     0.000     0.000            -263.765     1.239  -280.110
    -----------------------------------     -----------------------------------
              isotropic =      0.000                  isotropic =   -333.923

    ===     paramagnetic s^(1) tensor       ===     paramagnetic gauge tensor
    -----------------------------------     -----------------------------------
          54.211    -0.196   127.972              -0.668     0.007    -1.132
          -0.196    61.324    -0.253               0.007    -2.480     0.015
         127.972    -0.253     6.884              -1.132     0.015    -2.941
    -----------------------------------     -----------------------------------
              isotropic =     40.806                  isotropic =     -2.029

                        ***********************************
                        CARTESIAN AXIS REPRESENTATION

                        ==== total paramagnetic tensor
                        -----------------------------------
                            -142.096     0.278  -136.925
                               0.278  -467.176     1.002
                            -136.925     1.002  -276.167
                        -----------------------------------
                                  isotropic =   -295.146

                        ***********************************
                        -----------------------------------
                        PRINCIPAL AXIS REPRESENTATION

                        ==== Principal components:

                            -467.186  -361.576   -56.678
 
                        ==== Principal Axis System:

                              -0.004     0.529     0.848
                               1.000     0.009    -0.001
                              -0.008     0.848    -0.529
                        -----------------------------------
 
================================================================================
 
 
===  DIAMAGNETIC NMR SHIELDING TENSORS (ppm)
 
    ===       diamagnetic core tensor       ===    diamagnetic valence tensor
    -----------------------------------     -----------------------------------
           0.000     0.000     0.000            1149.949    -0.000    -4.570
           0.000     0.000     0.000              -0.000  1142.557     0.000
           0.000     0.000     0.000              -4.570     0.000  1146.211
    -----------------------------------     -----------------------------------
              isotropic =      0.000                  isotropic =   1146.239

                        ***********************************
                        CARTESIAN AXIS REPRESENTATION

                        ==== total diamagnetic tensor
                        -----------------------------------
                            1149.949    -0.000    -4.570
                              -0.000  1142.557     0.000
                              -4.570     0.000  1146.211
                        -----------------------------------
                                  isotropic =   1146.239

                        ***********************************
                        -----------------------------------
                        PRINCIPAL AXIS REPRESENTATION

                        ==== Principal components:

                            1142.557  1143.143  1153.017
 
                        ==== Principal Axis System:

                              -0.000     0.557     0.830
                               1.000     0.000    -0.000
                              -0.000     0.830    -0.557
                        -----------------------------------
 
================================================================================
 
 
===  TOTAL NMR SHIELDING TENSOR (ppm)
 
                        ***********************************
                        CARTESIAN AXIS REPRESENTATION

                        ==== total shielding tensor
                        -----------------------------------
                            1007.853     0.278  -141.494
                               0.278   675.381     1.002
                            -141.494     1.002   870.044
                        -----------------------------------
                                  isotropic =    851.093

                        ***********************************
                        -----------------------------------
                        PRINCIPAL AXIS REPRESENTATION

                        ==== Principal components:

                             675.372   781.578  1096.329
 
                        ==== Principal Axis System:

                              -0.004     0.530     0.848
                               1.000     0.009    -0.001
                              -0.008     0.848    -0.530
                        -----------------------------------
 *******************************************************************************

                             N M R   E X I T
 NORMAL TERMINATION



 =================
 Timing Statistics
 =================
  
 Total Used :                     CPU=      172.24      System=        3.57     Elapsed=      181.55

 Calls  Section                     ( Mean, Percentage )
 ---------------------------------------------------------------------------------------------------
     3  ><      ................      0.00    0.00             0.00    0.05             0.00    0.01
     1  INIT    ................      0.49    0.28             0.02    0.55             0.52    0.29
     1  RDEIGX  ................     44.55   25.87             0.52   14.58            46.45   25.58
     1  AOF1K   ................      2.57    1.49             0.02    0.54             2.61    1.44
    15  AOPKK   ................      4.82   41.94             0.20   82.99             5.18   42.78
    15  XSIGP   ................      0.02    0.17             0.00    0.25             0.02    0.17
    15  AODKKK  ................      3.47   30.20             0.00    0.65             3.59   29.68
    15  XDV     ................      0.01    0.05             0.00    0.09             0.01    0.05
    15  XSIGD   ................      0.00    0.00             0.00    0.00             0.00    0.00
     1  EXIT PROCEDURE .........      0.00    0.00             0.01    0.31             0.01    0.01


 Currently Open Files (EXIT00)
 ====================

 Unit    Access Format  Status   Type       Ident (file)
 -------------------------------------------------------
   3      SEQ    FORM   TRANSP  NORMAL      LOGFILE
                                          ( /home/milias/Work/projects/open-collection/theoretical_chemistry/projects/nmr_diplomovky/HD/ams/pbe0_tz2p_good/cosmo-water/HD.geopt_freq_nmr_shield_pbe0_tz2p_good_cosmo-water.logfile )
