 *******************************************************************************
 **                                                                           **
 **                              MOPAC v22.1.1                                **
 **                                                                           **
 *******************************************************************************
 **          Digital Object Identifier (DOI): 10.5281/zenodo.6511958          **
 **    Visit the DOI location for information on how to cite this program.    **
 *******************************************************************************

                              PM7 CALCULATION RESULTS

 *******************************************************************************
 *  CALCULATION DONE:                                Tue Oct  8 23:10:46 2024  *
 *  PM7        - The PM7 Hamiltonian to be used
 *  TRIPLET    - SPIN STATE DEFINED AS A TRIPLET
 *  UHF        - UNRESTRICTED HARTREE-FOCK CALCULATION
 *  1SCF       - DO 1 SCF AND THEN STOP 
 *  T=         - A TIME OF 172800.0 SECONDS REQUESTED
 *  DUMP=N     - RESTART FILE WRITTEN EVERY 7200.0 SECONDS REQUESTED
 *  RELSCF     - DEFAULT SCF CRITERION MULTIPLIED BY 0.0001
 *              (DEFAULT SCF CRITERION = 0.00010)
 *  GRADIENTS  - ALL GRADIENTS TO BE PRINTED
 *  DISP       - PRINT DISPERSION AND HYDROGEN BOND ENERGIES
 *******************************************************************************
PM7 1SCF GRADIENTS DISP RELSCF=0.0001 TRIPLET UHF
 Title: ASE calculation

   ATOM   CHEMICAL          X               Y               Z
  NUMBER   SYMBOL      (ANGSTROMS)     (ANGSTROMS)     (ANGSTROMS)
 
     1       O          0.00000000  *   0.00000000  *   0.62297800  *
     2       O          0.00000000  *   0.00000000  *  -0.62297800  *
 


          CARTESIAN COORDINATES 

    NO.       ATOM           X           Y           Z

     1         O          0.0000      0.0000      0.6230
     2         O          0.0000      0.0000     -0.6230

 General Reference for PM7:
 "Optimization of Parameters for Semiempirical Methods VI: More Modifications to the 
 NDDO Approximations and Re-optimization of Parameters", J. J. P. Stewart, J. Mol. Mod., 1:32, 19 (2013)
 https://link.springer.com/article/10.1007/s00894-012-1667-x

           Empirical Formula: O2  =     2 atoms



      MOLECULAR POINT GROUP   :   D*h 


 TRIPLET STATE CALCULATION


          UHF CALCULATION, NO. OF ALPHA ELECTRONS =    7
                           NO. OF BETA  ELECTRONS =    5
  SCF CRITERION =    0.1000E-07

 -------------------------------------------------------------------------------
 PM7 1SCF GRADIENTS DISP RELSCF=0.0001 TRIPLET UHF
 Title: ASE calculation



     1SCF WAS SPECIFIED, SO BFGS WAS NOT USED                 
     SCF FIELD WAS ACHIEVED                                   


                              PM7 CALCULATION
                                                       MOPAC v22.1.1 Linux
                                                       Tue Oct  8 23:10:46 2024




          FINAL HEAT OF FORMATION =          0.42902 KCAL/MOL =       1.79502 KJ/MOL

          TOTAL ENERGY            =     -13536.75759 KCAL/MOL = ELECTRONIC ENERGY + CORE-CORE REPULSION
          ENERGY OF ATOMS         =      13537.19009 KCAL/MOL
                              SUM =          0.43250 KCAL/MOL
          DISPERSION ENERGY       =         -0.00348 KCAL/MOL
                              SUM =          0.42902 KCAL/MOL = FINAL HEAT OF FORMATION



          TOTAL ENERGY            =       -587.00937 EV
          ELECTRONIC ENERGY       =       -926.76952 EV 
          CORE-CORE REPULSION     =        339.76016 EV
          COSMO AREA              =         50.36 SQUARE ANGSTROMS
          COSMO VOLUME            =         32.40 CUBIC ANGSTROMS

          GRADIENT NORM           =        214.88341          =       151.94552 PER ATOM
          IONIZATION POTENTIAL    =         11.233382 EV
          ALPHA SOMO LUMO (EV)    =        -11.233  1.757
          BETA  SOMO LUMO (EV)    =        -13.843 -0.204
          NO. OF ALPHA ELECTRONS  =          7
          NO. OF BETA  ELECTRONS  =          5
          MOLECULAR WEIGHT        =         31.9988         POINT GROUP:  D*h 

          MOLECULAR DIMENSIONS (Angstroms)

            Atom       Atom       Distance
            O     2    O     1     1.24596
            O     2    O     1     0.00000
            O     1    O     2     0.00000


          SCF CALCULATIONS        =          1
 
          WALL-CLOCK TIME         =      0.172 SECONDS
          COMPUTATION TIME        =      0.011 SECONDS

          LARGEST ATOMIC GRADIENTS

          Atom     Label                     Cartesian Gradients           Cartesian Coordinates       |Gradient|
                                           X          Y          Z        X          Y          Z

             2       O                   0.000      0.000   -151.946    0.00000    0.00000   -0.62298    151.946
             1       O                   0.000      0.000    151.946    0.00000    0.00000    0.62298    151.946



       FINAL  POINT  AND  DERIVATIVES

   PARAMETER     ATOM    TYPE            VALUE        GRADIENT
      1          1  O    CARTESIAN X     0.000000      0.000000  KCAL/ANGSTROM
      2          1  O    CARTESIAN Y     0.000000      0.000000  KCAL/ANGSTROM
      3          1  O    CARTESIAN Z     0.622978    151.945516  KCAL/ANGSTROM
      4          2  O    CARTESIAN X     0.000000      0.000000  KCAL/ANGSTROM
      5          2  O    CARTESIAN Y     0.000000      0.000000  KCAL/ANGSTROM
      6          2  O    CARTESIAN Z    -0.622978   -151.945516  KCAL/ANGSTROM




   ATOM   CHEMICAL          X               Y               Z
  NUMBER   SYMBOL      (ANGSTROMS)     (ANGSTROMS)     (ANGSTROMS)
 
     1       O          0.00000000  *   0.00000000  *   0.62297800  *
     2       O          0.00000000  *   0.00000000  *  -0.62297800  *

                             CARTESIAN COORDINATES

   1    O        0.000000000     0.000000000     0.622978000
   2    O        0.000000000     0.000000000    -0.622978000


           Empirical Formula: O2  =     2 atoms



      MOLECULAR POINT GROUP   :   D*h 


          ALPHA EIGENVALUES  
 -32.47747 -30.29819 -18.27909 -16.23277 -16.23277 -11.23338 -11.23338   1.75701


           BETA EIGENVALUES 
 -28.23845 -25.38888 -16.80908 -13.84258 -13.84258  -0.20378  -0.20378   3.14009


              NET ATOMIC CHARGES AND DIPOLE CONTRIBUTIONS

  ATOM NO.   TYPE          CHARGE      No. of ELECS.   s-Pop       p-Pop       
    1          O          -0.000000        6.0000     1.97203     4.02797
    2          O           0.000000        6.0000     1.97203     4.02797
 DIPOLE           X         Y         Z       TOTAL
 POINT-CHG.     0.000     0.000    -0.000     0.000
 HYBRID         0.000     0.000     0.000     0.000
 SUM            0.000     0.000    -0.000     0.000


          ATOMIC ORBITAL ELECTRON POPULATIONS

     Atom    s        px        py        pz   
    1  O   1.97203   1.50000   1.50000   1.02797
    2  O   1.97203   1.50000   1.50000   1.02797


                    (SZ)    =    1.000000
                    (S**2)  =    2.002358


          ATOMIC ORBITAL SPIN POPULATIONS

    Atom   Total    s     px     py     pz   
         Atomic
    1  O  1.0000  0.008  0.500  0.500 -0.008
    2  O  1.0000  0.008  0.500  0.500 -0.008

 **********************
 *                    *
 * JOB ENDED NORMALLY *
 *                    *
 **********************



 TOTAL JOB TIME:             0.33 SECONDS

 == MOPAC DONE ==
