 argument  1 = /lustre/ukt/milias/work/projects/open-collection/theoretical_chemistry/projects/adsorbate_on_surface/on_quartz/quartz/nwchem/Quartz-G_molecular_slab_153atoms/ecp/OsO4_on_quartz/OsO4onQ.geopt_crenbl_ecp_revpbe-d3bj.nw



============================== echo of input deck ==============================
echo

start molecule

memory total 180 gb

print low

title "OsO4@Quartz ecp"
charge 0

geometry units angstroms print xyz autosym
  load format xyz OsO4_Q.geometry.xyz
end

basis
 * library crenbl_ecp
end

ecp
  Si library crenbl_ecp
  Os library crenbl_ecp
end

dft
  xc revpbe cpbe96
  maxiter 500
end

driver
  maxiter 999
  xyz OsO4Qgeomconv
end

task dft optimize

#task dft frequencies

================================================================================


                                         
                                         


             Northwest Computational Chemistry Package (NWChem) 7.2.0
             --------------------------------------------------------


                    Environmental Molecular Sciences Laboratory
                       Pacific Northwest National Laboratory
                                Richland, WA 99352

                              Copyright (c) 1994-2022
                       Pacific Northwest National Laboratory
                            Battelle Memorial Institute

             NWChem is an open-source computational chemistry package
                        distributed under the terms of the
                      Educational Community License (ECL) 2.0
             A copy of the license is included with this distribution
                              in the LICENSE.TXT file

                                  ACKNOWLEDGMENT
                                  --------------

            This software and its documentation were developed at the
            EMSL at Pacific Northwest National Laboratory, a multiprogram
            national laboratory, operated for the U.S. Department of Energy
            by Battelle under Contract Number DE-AC05-76RL01830. Support
            for this work was provided by the Department of Energy Office
            of Biological and Environmental Research, Office of Basic
            Energy Sciences, and the Office of Advanced Scientific Computing.


           Job information
           ---------------

    hostname        = lxbk0887
    program         = /lustre/ukt/milias/work/software/nwchem/nwchem-7.2.0_gnu_openmpi_openblas/bin/LINUX64/nwchem
    date            = Thu Aug 17 22:35:28 2023

    compiled        = Sun_Jul_02_11:55:06_2023
    source          = /lustre/ukt/milias/work/software/nwchem/nwchem-7.2.0_gnu_openmpi_openblas
    nwchem branch   = 7.2.0
    nwchem revision = v7.2.0-beta1-192-gd0d141fdfb
    ga revision     = 5.8.0
    use scalapack   = F
    input           = /lustre/ukt/milias/work/projects/open-collection/theoretical_chemistry/projects/adsorbate_on_surface/on_quartz/quartz/nwchem/Quartz-G_molecular_slab_153atoms/ecp/OsO4_on_quartz/OsO4onQ.geopt_crenbl_ecp_revpbe-d3bj.nw
    prefix          = molecule.
    data base       = ./molecule.db
    status          = startup
    nproc           =      140
    time left       =     -1s



           Memory information
           ------------------

    heap     = 6039797760 doubles =  46080.0 Mbytes
    stack    = 6039797757 doubles =  46080.0 Mbytes
    global   = ********** doubles =  92160.0 Mbytes (distinct from heap & stack)
    total    = ********** doubles = 184320.0 Mbytes
    verify   = yes
    hardfail = no 


           Directory information
           ---------------------

  0 permanent = .
  0 scratch   = .




                                NWChem Input Module
                                -------------------


                                  OsO4@Quartz ecp
                                  ---------------

 Scaling coordinates for geometry "geometry" by  1.889725989
 (inverse scale =  0.529177249)


          ------
          auto-z
          ------
  no constraints, skipping    0.0000000000000000     
  no constraints, skipping    0.0000000000000000     


                             Geometry "geometry" -> ""
                             -------------------------

 Output coordinates in angstroms (scale by  1.889725989 to convert to a.u.)

  No.       Tag          Charge          X              Y              Z
 ---- ---------------- ---------- -------------- -------------- --------------
    1 O                    8.0000    -4.81186146     1.77698943    -3.22810908
    2 H                    1.0000     2.75502019    -5.59176651    -1.80100362
    3 H                    1.0000    -4.68303277     9.77785128     4.34709821
    4 Si                  14.0000     2.01142449   -10.35390931     1.23152259
    5 Si                  14.0000    -1.57861183    -8.07278838    -1.89082386
    6 Si                  14.0000    -3.31766313    -3.68100394    -4.85719677
    7 H                    1.0000    -1.63446435     6.47188016     0.19159459
    8 Si                  14.0000     4.04383087    -5.39384187     0.40878284
    9 Si                  14.0000    -0.32103198    -2.68309038    -1.11952905
   10 Si                  14.0000    -4.28565542     0.64962602    -2.13424669
   11 H                    1.0000     2.03675190     2.69670802    -2.82584035
   12 Si                  14.0000     4.63986458    -0.71296873    -1.41127996
   13 Si                  14.0000     0.50164069     2.23531916    -0.46583634
   14 Si                  14.0000    -3.79761959     4.73028607     1.22116629
   15 H                    1.0000     0.58042608    -9.30489761    -1.07256473
   16 Si                  14.0000     3.83522222     4.26086114    -3.33654854
   17 Si                  14.0000     0.71925510     7.31252440    -0.08758524
   18 Si                  14.0000    -2.40290932     8.52205919     4.08130000
   19 O                    8.0000     2.99105970    -0.73009856    -1.76085390
   20 O                    8.0000    -1.56903854    -6.54212500     4.07350912
   21 O                    8.0000    -6.23112268    -5.15671486     0.50096774
   22 O                    8.0000     0.97610436     6.98242515    -1.69967530
   23 O                    8.0000    -0.92557978     2.64955190    -1.23234220
   24 O                    8.0000     1.87988825    -2.19738680     4.58066868
   25 O                    8.0000    -3.64400033    -1.33889889     3.69514018
   26 O                    8.0000    -1.88251554     8.54967842     2.51010681
   27 O                    8.0000    -4.81346952     5.98767707     0.86233383
   28 O                    8.0000     4.61499777     2.18106640     2.79316350
   29 O                    8.0000     0.35605078     2.35125779     4.54836102
   30 H                    1.0000     2.27050285    -1.39248532    -1.78164029
   31 H                    1.0000     4.75791451     4.43664870    -5.74799989
   32 O                    8.0000    -2.48849925     4.71794408     0.17334145
   33 O                    8.0000    -1.01036778    -2.04071898    -2.48878883
   34 O                    8.0000     3.17931010    -7.41149644     3.98523340
   35 O                    8.0000     5.18707207     0.85179423    -1.36190759
   36 Si                  14.0000     4.91500548     3.48409936     1.81283492
   37 Si                  14.0000     0.45185467     4.02639589     4.41772921
   38 O                    8.0000    -1.32753317    -5.63334022     1.51306015
   39 O                    8.0000    -5.28385956    -3.23538078    -1.18651845
   40 H                    1.0000    -5.34808054     6.74941147     0.65291561
   41 H                    1.0000     2.54495398   -10.38683894    -1.30007763
   42 Si                  14.0000     2.34477695    -7.30872295     2.55307615
   43 O                    8.0000     4.74177507     3.33732405    -2.29981931
   44 O                    8.0000     1.49785593     6.11002089     0.79848099
   45 O                    8.0000     2.32485895     3.39048038    -3.51084786
   46 Si                  14.0000    -1.95834816    -5.34881650    -0.00647520
   47 O                    8.0000     1.14401550     4.41631123     2.95317766
   48 H                    1.0000     0.83620203     6.52775751    -2.54547968
   49 H                    1.0000    -4.24711888     4.30519430     6.15958582
   50 Si                  14.0000    -5.46195176    -2.42811843    -2.63414292
   51 O                    8.0000     3.44385338     4.25466702     1.57196965
   52 O                    8.0000    -0.91170407     7.12289750     0.24749211
   53 O                    8.0000    -1.81210484    -6.70940323    -0.95680180
   54 O                    8.0000    -3.24966754     4.89154335     2.79127157
   55 O                    8.0000     6.21480779    -2.30463587     2.27237672
   56 O                    8.0000    -3.85910056     9.30634705     4.26412567
   57 O                    8.0000    -4.45623679    -3.11862117    -3.77732907
   58 H                    1.0000     3.89631376   -11.91615322     2.15009879
   59 O                    8.0000     0.97548200    -0.89455310     2.36558137
   60 H                    1.0000    -5.06249711     2.44207351    -3.86482124
   61 H                    1.0000     2.16230791     0.86411327    -1.75578260
   62 O                    8.0000     3.43540871     5.71915942    -2.69293854
   63 O                    8.0000    -4.15261765     0.79531243     2.05434571
   64 H                    1.0000     6.65980168     5.13025126     2.84193346
   65 O                    8.0000     4.34135684    -3.88609683     1.05014416
   66 O                    8.0000     1.24899471     8.81789706     0.33825970
   67 H                    1.0000     1.86715818     5.02774346     6.36732666
   68 O                    8.0000    -1.28302922     9.19616183     5.11136494
   69 H                    1.0000    -7.94934744    -2.49815282    -3.42804286
   70 H                    1.0000    -7.60964078     1.39413257     1.40743597
   71 H                    1.0000     8.20591011     2.68402052    -1.89839322
   72 H                    1.0000    -2.16163908    -6.99237765     4.66922683
   73 H                    1.0000    -6.93695708    -5.77980136     0.64924931
   74 O                    8.0000     3.19735300    -6.34892274     1.47728208
   75 O                    8.0000    -1.07134992    -4.09954712    -0.67830349
   76 H                    1.0000     1.88068014    -2.74494296     5.36393175
   77 H                    1.0000    -3.76422214    -2.10824717     4.25049366
   78 O                    8.0000    -3.62153225     4.53161454     5.47543939
   79 O                    8.0000    -1.11352275     4.60208032     4.44651857
   80 O                    8.0000     4.53512626     4.37121791    -4.82156168
   81 O                    8.0000    -0.17753910    -8.83197043    -1.44571857
   82 H                    1.0000     6.32902223    -6.52713693    -0.16392821
   83 O                    8.0000    -4.95953652    -0.84811738    -2.42776827
   84 O                    8.0000    -0.15794372    -4.24977828     3.55461269
   85 O                    8.0000    -4.89566111    -2.97966717     1.49867285
   86 O                    8.0000    -2.61547537    -5.06208330    -4.29048402
   87 H                    1.0000     4.21192906     1.45180983     3.27973046
   88 O                    8.0000     2.59506311     0.39196048     4.05086482
   89 O                    8.0000    -2.70553233     1.15743116     4.31690773
   90 H                    1.0000    -1.39576346    -2.14406774    -3.38255535
   91 O                    8.0000     0.84836216    -6.62576013     2.79806156
   92 O                    8.0000     6.02951607     4.51842649     2.47121188
   93 O                    8.0000     1.34466041     4.64479153     5.66725944
   94 O                    8.0000     5.47926183    -6.13082103     0.01155327
   95 O                    8.0000    -3.53908028    -4.84702963     0.10600278
   96 H                    1.0000    -0.19515681     1.56483823     4.55018663
   97 O                    8.0000     5.42595731     2.96871833     0.30413031
   98 O                    8.0000     1.31279581    -2.99181784    -1.36616990
   99 H                    1.0000    -1.62289125     2.20756464    -1.74774167
  100 H                    1.0000     3.65246909    -7.46407983     4.81158743
  101 O                    8.0000    -7.04003226    -2.48259040    -3.14161406
  102 H                    1.0000    -1.53677460     8.26154192     1.64823069
  103 O                    8.0000     4.79818116    -1.44207713     0.08368677
  104 O                    8.0000     5.47055967    -1.58450478    -2.55340911
  105 H                    1.0000     7.05508430    -2.21792402     2.71602443
  106 Si                  14.0000     5.68934628     2.44250737    -1.24881358
  107 O                    8.0000     0.16408139     0.94678758     0.53860868
  108 O                    8.0000    -0.43353562    -1.60931899     0.15067768
  109 O                    8.0000     3.56762955    -1.69519647     2.50085298
  110 Si                  14.0000     1.82947940     4.61836504     1.44366852
  111 H                    1.0000    -2.24913693    -5.86567630    -3.89420411
  112 H                    1.0000    -2.76135117     1.92660552     4.88669851
  113 H                    1.0000     0.25651821    -3.41264511     3.77745108
  114 Si                  14.0000    -2.65485747     5.23653319     4.31385704
  115 O                    8.0000     1.12340435     3.48644010     0.41981394
  116 O                    8.0000     3.22535284   -11.34850558     1.77932146
  117 O                    8.0000    -2.61899015     0.47657625    -2.23077041
  118 H                    1.0000    -1.89112172     4.19113955    -0.38884945
  119 O                    8.0000    -4.55994530     3.25381092     1.06724482
  120 H                    1.0000     5.95803014    -2.04115696    -3.23426772
  121 H                    1.0000    -1.21753889    -7.71306234    -4.42526452
  122 Si                  14.0000     4.75133947    -2.32220517     1.49934891
  123 H                    1.0000     2.03909540    -3.62526674    -1.22852781
  124 H                    1.0000    -1.67975545    -1.81216684    -5.54108738
  125 O                    8.0000     0.52288891   -10.97530069     1.61075822
  126 Si                  14.0000    -0.25634081    -0.45536877     1.33237016
  127 O                    8.0000    -1.64301833    -0.21935388     2.22294573
  128 O                    8.0000     2.14876655   -10.23331772    -0.44316490
  129 O                    8.0000    -2.88342245    -9.08985285    -1.73342268
  130 Si                  14.0000    -5.05699328     1.66651857     0.94425033
  131 H                    1.0000    -1.88673354    -0.15117662    -2.32618056
  132 O                    8.0000     7.28550289     2.58237697    -1.67006323
  133 O                    8.0000     3.12346704    -5.22552218    -0.99603688
  134 O                    8.0000    -1.45235298    -7.60328582    -3.50451086
  135 O                    8.0000    -6.67557526     1.50420478     1.24902020
  136 O                    8.0000     2.17814688    -8.83440076     1.89306891
  137 O                    8.0000    -4.00478055    -3.91641582    -6.35303327
  138 O                    8.0000    -2.14616064    -2.46699218    -5.01977361
  139 Si                  14.0000    -0.57315679    -5.75923787     3.00042588
  140 Si                  14.0000     2.28260208    -1.10637550     3.38070336
  141 H                    1.0000    -0.36004809   -11.27398306     1.81428444
  142 H                    1.0000    -3.66451888    -9.62613186    -1.62573148
  143 Si                  14.0000    -5.01350259    -4.05735643     0.24549704
  144 Si                  14.0000    -3.04567842     0.09294977     3.07706060
  145 H                    1.0000    -4.45009426    -4.07376931    -7.18150817
  146 O                    8.0000    -2.59625587     6.88957597     4.45837251
  147 O                    8.0000     1.63524359     1.68772539    -1.59756940
  148 H                    1.0000    -4.66135950    -2.31912500     2.15884796
  149 O                    8.0000    -4.67966458     1.13154795    -0.58683099
  150 H                    1.0000     2.19648378     1.21045603     4.38243164
  151 H                    1.0000    -0.61787765     9.57688719     5.67763137
  152 H                    1.0000     1.50412453     9.69649030     0.60783618
  153 H                    1.0000     2.99701475     6.44163158    -2.22983919
  154 Os                  76.0000     0.65011007     3.80826536    -4.95392668
  155 O                    8.0000    -0.68003850     4.11593503    -6.03236806
  156 O                    8.0000     1.95606309     3.87360232    -6.09796512
  157 O                    8.0000     0.17999036     2.23124587    -4.39874519
  158 O                    8.0000     0.46380519     5.19388709    -3.90561123

      Atomic Mass 
      ----------- 

      O                 15.994910
      H                  1.007825
      Si                27.976930
      Os               189.958600


 Effective nuclear repulsion energy (a.u.)   50040.3739614164

            Nuclear Dipole moment (a.u.) 
            ----------------------------
        X                 Y               Z
 ---------------- ---------------- ----------------
    -0.0000000000     0.0000000000    -0.0000000000



                                Z-matrix (autoz)
                                -------- 

 Units are Angstrom for bonds and degrees for angles

      Type          Name      I     J     K     L     M      Value
      ----------- --------  ----- ----- ----- ----- ----- ----------
    1 Stretch                  1    10                       1.65662
    2 Stretch                  1    60                       0.95423
    3 Stretch                  2   133                       0.95805
    4 Stretch                  3    56                       0.95292
    5 Stretch                  4   116                       1.66221
    6 Stretch                  4   125                       1.65701
    7 Stretch                  4   128                       1.68463
    8 Stretch                  4   136                       1.66564
    9 Stretch                  5    53                       1.66905
   10 Stretch                  5    81                       1.65453
   11 Stretch                  5   129                       1.66184
   12 Stretch                  5   134                       1.68534
   13 Stretch                  6    57                       1.66695
   14 Stretch                  6    86                       1.64973
   15 Stretch                  6   137                       1.66285
   16 Stretch                  6   138                       1.69490
   17 Stretch                  7    52                       0.97434
   18 Stretch                  8    65                       1.66528
   19 Stretch                  8    74                       1.66445
   20 Stretch                  8    94                       1.66174
   21 Stretch                  8   133                       1.68787
   22 Stretch                  9    33                       1.66214
   23 Stretch                  9    75                       1.66253
   24 Stretch                  9    98                       1.68093
   25 Stretch                  9   108                       1.66705
   26 Stretch                 10    83                       1.66838
   27 Stretch                 10   117                       1.67840
   28 Stretch                 10   149                       1.66793
   29 Stretch                 11    45                       1.01664
   30 Stretch                 12    19                       1.68554
   31 Stretch                 12    35                       1.65842
   32 Stretch                 12   103                       1.67080
   33 Stretch                 12   104                       1.65954
   34 Stretch                 13    23                       1.67215
   35 Stretch                 13   107                       1.66828
   36 Stretch                 13   115                       1.65417
   37 Stretch                 13   147                       1.69285
   38 Stretch                 14    27                       1.65582
   39 Stretch                 14    32                       1.67687
   40 Stretch                 14    54                       1.67077
   41 Stretch                 14   119                       1.66878
   42 Stretch                 15    81                       0.96820
   43 Stretch                 16    43                       1.65818
   44 Stretch                 16    45                       1.75190
   45 Stretch                 16    62                       1.64339
   46 Stretch                 16    80                       1.64539
   47 Stretch                 17    22                       1.66546
   48 Stretch                 17    44                       1.68444
   49 Stretch                 17    52                       1.67579
   50 Stretch                 17    66                       1.65170
   51 Stretch                 18    26                       1.65536
   52 Stretch                 18    56                       1.66404
   53 Stretch                 18    68                       1.66421
   54 Stretch                 18   146                       1.68658
   55 Stretch                 19    30                       0.97897
   56 Stretch                 20    72                       0.95330
   57 Stretch                 20   139                       1.66018
   58 Stretch                 21    73                       0.95311
   59 Stretch                 21   143                       1.66026
   60 Stretch                 22    48                       0.97040
   61 Stretch                 23    99                       0.97326
   62 Stretch                 24    76                       0.95568
   63 Stretch                 24   140                       1.67105
   64 Stretch                 25    77                       0.95643
   65 Stretch                 25   144                       1.67039
   66 Stretch                 26   102                       0.97231
   67 Stretch                 27    40                       0.95389
   68 Stretch                 28    36                       1.65799
   69 Stretch                 28    87                       0.96490
   70 Stretch                 29    37                       1.68295
   71 Stretch                 29    96                       0.96036
   72 Stretch                 31    80                       0.95509
   73 Stretch                 32   118                       0.97491
   74 Stretch                 33    90                       0.97879
   75 Stretch                 34    42                       1.66075
   76 Stretch                 34   100                       0.95368
   77 Stretch                 35   106                       1.67196
   78 Stretch                 36    51                       1.67812
   79 Stretch                 36    92                       1.65693
   80 Stretch                 36    97                       1.67418
   81 Stretch                 37    47                       1.66614
   82 Stretch                 37    79                       1.66813
   83 Stretch                 37    93                       1.65555
   84 Stretch                 38    46                       1.66969
   85 Stretch                 38   139                       1.67248
   86 Stretch                 39    50                       1.66704
   87 Stretch                 39   143                       1.67314
   88 Stretch                 41   128                       0.95647
   89 Stretch                 42    74                       1.67494
   90 Stretch                 42    91                       1.66304
   91 Stretch                 42   136                       1.67065
   92 Stretch                 43   106                       1.67428
   93 Stretch                 44   110                       1.65870
   94 Stretch                 45   154                       2.24985
   95 Stretch                 46    53                       1.66604
   96 Stretch                 46    75                       1.67296
   97 Stretch                 46    95                       1.66227
   98 Stretch                 47   110                       1.67012
   99 Stretch                 49    78                       0.95430
  100 Stretch                 50    57                       1.67186
  101 Stretch                 50    83                       1.67075
  102 Stretch                 50   101                       1.65856
  103 Stretch                 51   110                       1.65980
  104 Stretch                 54   114                       1.67065
  105 Stretch                 55   105                       0.95415
  106 Stretch                 55   122                       1.65518
  107 Stretch                 58   116                       0.95388
  108 Stretch                 59   126                       1.66667
  109 Stretch                 59   140                       1.66850
  110 Stretch                 61   147                       0.99054
  111 Stretch                 62   153                       0.96365
  112 Stretch                 63   130                       1.67607
  113 Stretch                 63   144                       1.66270
  114 Stretch                 64    92                       0.95343
  115 Stretch                 65   122                       1.67798
  116 Stretch                 66   152                       0.95378
  117 Stretch                 67    93                       0.95381
  118 Stretch                 68   151                       0.95291
  119 Stretch                 69   101                       0.95349
  120 Stretch                 70   135                       0.95378
  121 Stretch                 71   132                       0.95374
  122 Stretch                 78   114                       1.66753
  123 Stretch                 79   114                       1.67208
  124 Stretch                 82    94                       0.95391
  125 Stretch                 84   113                       0.96033
  126 Stretch                 84   139                       1.66072
  127 Stretch                 85   143                       1.65703
  128 Stretch                 85   148                       0.96283
  129 Stretch                 86   111                       0.96799
  130 Stretch                 88   140                       1.67086
  131 Stretch                 88   150                       0.96888
  132 Stretch                 89   112                       0.95886
  133 Stretch                 89   144                       1.66914
  134 Stretch                 91   139                       1.67706
  135 Stretch                 95   143                       1.67838
  136 Stretch                 97   106                       1.66069
  137 Stretch                 98   123                       0.97351
  138 Stretch                103   122                       1.66761
  139 Stretch                104   120                       0.95380
  140 Stretch                106   132                       1.65672
  141 Stretch                107   126                       1.66519
  142 Stretch                108   126                       1.66114
  143 Stretch                109   122                       1.67252
  144 Stretch                109   140                       1.66498
  145 Stretch                110   115                       1.68169
  146 Stretch                114   146                       1.66038
  147 Stretch                117   131                       0.96921
  148 Stretch                119   130                       1.66784
  149 Stretch                121   134                       0.95654
  150 Stretch                124   138                       0.95817
  151 Stretch                125   141                       0.95405
  152 Stretch                126   127                       1.66484
  153 Stretch                127   144                       1.67168
  154 Stretch                129   142                       0.95357
  155 Stretch                130   135                       1.65500
  156 Stretch                130   149                       1.66517
  157 Stretch                137   145                       0.95364
  158 Stretch                154   155                       1.73983
  159 Stretch                154   156                       1.73741
  160 Stretch                154   157                       1.73673
  161 Stretch                154   158                       1.74746
  162 Bend                     1    10    83               111.49702
  163 Bend                     1    10   117               110.34113
  164 Bend                     1    10   149               109.93352
  165 Bend                     2   133     8               150.56253
  166 Bend                     3    18    26               111.24467
  167 Bend                     3    18    68               109.21491
  168 Bend                     3    18   146               109.99450
  169 Bend                     4   128    41               155.90987
  170 Bend                     4    42    34               109.59184
  171 Bend                     4    42    74               108.63124
  172 Bend                     4    42    91               110.07714
  173 Bend                     5    46    38               109.39722
  174 Bend                     5    46    75               108.82987
  175 Bend                     5    46    95               113.15370
  176 Bend                     5    81    15               172.19831
  177 Bend                     5   134   121               155.24145
  178 Bend                     6    57    50               173.30127
  179 Bend                     6   138   124               151.41948
  180 Bend                     7    52    17               141.82166
  181 Bend                     8    65   122               172.13568
  182 Bend                     8    42    34               109.48456
  183 Bend                     8    42    91               108.47659
  184 Bend                     8    42   136               108.70727
  185 Bend                     9    33    90               151.01266
  186 Bend                     9    75    46               169.13580
  187 Bend                     9    98   123               145.47925
  188 Bend                     9   108   126               169.19708
  189 Bend                    10    83    50               172.81675
  190 Bend                    10   117   131               145.35326
  191 Bend                    10   130    63               109.16728
  192 Bend                    10   130   119               106.83068
  193 Bend                    10   130   135               111.50257
  194 Bend                    11    45    16               121.08586
  195 Bend                    11    45   154               110.36195
  196 Bend                    12    19    30               136.99298
  197 Bend                    12   106    43               107.30752
  198 Bend                    12   106    97               107.21439
  199 Bend                    12   106   132               111.79591
  200 Bend                    12   103   122               170.83268
  201 Bend                    13    23    99               137.88282
  202 Bend                    13   107   126               171.28456
  203 Bend                    13   115   110               173.15474
  204 Bend                    13   147    61               137.05945
  205 Bend                    14    32   118               147.42520
  206 Bend                    14    54   114               173.29243
  207 Bend                    14   119   130               170.05702
  208 Bend                    16   106    35               108.03810
  209 Bend                    16   106    97               108.94945
  210 Bend                    16   106   132               109.31240
  211 Bend                    16    45   154               127.82952
  212 Bend                    16    62   153               164.61722
  213 Bend                    16    80    31               168.31334
  214 Bend                    17    22    48               156.10652
  215 Bend                    17    44   110               159.88752
  216 Bend                    18    26   102               161.47587
  217 Bend                    18   146   114               161.48324
  218 Bend                    19    12    35               109.78726
  219 Bend                    19    12   103               105.89191
  220 Bend                    19    12   104               109.97289
  221 Bend                    20   139    38               109.86174
  222 Bend                    20   139    84               111.27842
  223 Bend                    20   139    91               110.04752
  224 Bend                    21   143    39               109.78531
  225 Bend                    21   143    85               111.49604
  226 Bend                    21   143    95               110.21316
  227 Bend                    22    17    44               107.24098
  228 Bend                    22    17    52               108.73621
  229 Bend                    22    17    66               112.37956
  230 Bend                    23    13   107               107.13511
  231 Bend                    23    13   115               112.26450
  232 Bend                    23    13   147               110.19611
  233 Bend                    24   140    59               109.32816
  234 Bend                    24   140    88               110.03092
  235 Bend                    24   140   109               109.54682
  236 Bend                    25   144    63               110.56254
  237 Bend                    25   144    89               110.17013
  238 Bend                    25   144   127               109.23630
  239 Bend                    26    18    56               111.80944
  240 Bend                    26    18    68               111.66493
  241 Bend                    26    18   146               105.33083
  242 Bend                    27    14    32               110.43418
  243 Bend                    27    14    54               109.36385
  244 Bend                    27    14   119               111.81574
  245 Bend                    28    36    51               106.68537
  246 Bend                    28    36    92               112.17072
  247 Bend                    28    36    97               110.25027
  248 Bend                    29    37    47               108.95429
  249 Bend                    29    37    79               106.78292
  250 Bend                    29    37    93               110.11524
  251 Bend                    32    14    54               109.38364
  252 Bend                    32    14   119               107.00690
  253 Bend                    33     9    75               111.14501
  254 Bend                    33     9    98               110.68401
  255 Bend                    33     9   108               110.53424
  256 Bend                    34    42    74               109.48490
  257 Bend                    34    42    91               110.52003
  258 Bend                    34    42   136               109.52930
  259 Bend                    35    12   103               110.72206
  260 Bend                    35    12   104               110.53836
  261 Bend                    35   106    43               107.21742
  262 Bend                    35   106    97               108.48596
  263 Bend                    35   106   132               110.64353
  264 Bend                    36    28    87               165.40417
  265 Bend                    36    51   110               164.66297
  266 Bend                    36    97   106               171.35474
  267 Bend                    37    29    96               147.98393
  268 Bend                    37    47   110               173.35897
  269 Bend                    37    79   114               174.04704
  270 Bend                    38    46    53               110.29088
  271 Bend                    38    46    75               107.00198
  272 Bend                    38    46    95               110.43412
  273 Bend                    38   139    84               109.94511
  274 Bend                    38   139    91               108.29488
  275 Bend                    39    50    57               109.23935
  276 Bend                    39    50    83               108.57568
  277 Bend                    39    50   101               110.57559
  278 Bend                    39   143    85               109.83205
  279 Bend                    39   143    95               107.57535
  280 Bend                    40    14    32               109.48869
  281 Bend                    40    14    54               108.96325
  282 Bend                    40    14   119               113.15716
  283 Bend                    42     8    65               111.27067
  284 Bend                    42     8    94               109.79664
  285 Bend                    42     8   133               108.31177
  286 Bend                    42    91   139               173.05537
  287 Bend                    42     4   116               110.03757
  288 Bend                    42     4   125               109.96144
  289 Bend                    42     4   128               108.68069
  290 Bend                    43    16    45               104.88235
  291 Bend                    43    16    62               112.48112
  292 Bend                    43    16    80               111.65875
  293 Bend                    43   106    97               109.14131
  294 Bend                    43   106   132               109.90944
  295 Bend                    44    17    52               105.30181
  296 Bend                    44    17    66               111.51672
  297 Bend                    44   110    47               112.22884
  298 Bend                    44   110    51               114.93436
  299 Bend                    44   110   115               106.53165
  300 Bend                    45    16    62               105.66944
  301 Bend                    45    16    80               108.07457
  302 Bend                    45   154   156                82.51932
  303 Bend                    45   154   157                80.08657
  304 Bend                    45   154   158                80.89860
  305 Bend                    46    38   139               173.01461
  306 Bend                    46     5    81               108.62073
  307 Bend                    46     5   129               110.92086
  308 Bend                    46     5   134               108.78972
  309 Bend                    46    95   143               169.43173
  310 Bend                    47    37    79               108.91988
  311 Bend                    47    37    93               110.60890
  312 Bend                    47   110    51               107.62703
  313 Bend                    47   110   115               107.24884
  314 Bend                    49    78   114               168.44079
  315 Bend                    50   143    21               110.93566
  316 Bend                    50   143    85               110.14865
  317 Bend                    50   143    95               106.01539
  318 Bend                    51    36    92               111.10429
  319 Bend                    51    36    97               106.23423
  320 Bend                    51   110   115               107.93532
  321 Bend                    52    17    66               111.32909
  322 Bend                    53     5    81               110.04351
  323 Bend                    53     5   129               109.69929
  324 Bend                    53     5   134               108.58671
  325 Bend                    53    46    75               109.52553
  326 Bend                    53    46    95               111.62881
  327 Bend                    54    14   119               108.77741
  328 Bend                    54   114    78               109.94772
  329 Bend                    54   114    79               108.79292
  330 Bend                    54   114   146               107.30610
  331 Bend                    55   122    65               110.54554
  332 Bend                    55   122   103               111.47140
  333 Bend                    55   122   109               110.00648
  334 Bend                    56    18    68               109.26608
  335 Bend                    56    18   146               109.34859
  336 Bend                    57     6    86               110.52521
  337 Bend                    57     6   137               110.38141
  338 Bend                    57     6   138               107.01318
  339 Bend                    57    50    83               107.10640
  340 Bend                    57    50   101               110.46172
  341 Bend                    58     4   125               110.06633
  342 Bend                    58     4   128               109.46460
  343 Bend                    58     4   136               109.47315
  344 Bend                    59   126   107               109.31658
  345 Bend                    59   126   108               109.68106
  346 Bend                    59   126   127               108.74409
  347 Bend                    59   140    88               106.06220
  348 Bend                    59   140   109               109.14886
  349 Bend                    60    10    83               112.31331
  350 Bend                    60    10   117               109.16293
  351 Bend                    60    10   149               110.26910
  352 Bend                    62    16    80               113.41789
  353 Bend                    63   130   119               106.56127
  354 Bend                    63   130   135               110.77884
  355 Bend                    63   130   149               108.64626
  356 Bend                    63   144    89               108.85452
  357 Bend                    63   144   127               108.86005
  358 Bend                    64    36    28               112.54940
  359 Bend                    64    36    51               110.67150
  360 Bend                    64    36    97               110.20778
  361 Bend                    65     8    74               111.29383
  362 Bend                    65     8    94               109.83273
  363 Bend                    65     8   133               109.12819
  364 Bend                    65   122   103               105.75334
  365 Bend                    65   122   109               109.68069
  366 Bend                    67    37    29               110.78764
  367 Bend                    67    37    47               109.97890
  368 Bend                    67    37    79               111.32819
  369 Bend                    68    18   146               109.31907
  370 Bend                    69    50    39               110.65232
  371 Bend                    69    50    57               110.72959
  372 Bend                    69    50    83               110.44280
  373 Bend                    70   130    63               110.86277
  374 Bend                    70   130   119               112.20429
  375 Bend                    70   130   149               110.57655
  376 Bend                    71   106    35               111.15090
  377 Bend                    71   106    43               109.87561
  378 Bend                    71   106    97               110.87333
  379 Bend                    72   139    38               109.22407
  380 Bend                    72   139    84               111.57901
  381 Bend                    72   139    91               110.39452
  382 Bend                    73   143    39               109.70037
  383 Bend                    73   143    85               111.35593
  384 Bend                    73   143    95               110.44517
  385 Bend                    74     8    94               109.77168
  386 Bend                    74     8   133               108.31321
  387 Bend                    74    42    91               108.50000
  388 Bend                    74    42   136               108.68327
  389 Bend                    75     9    98               108.73094
  390 Bend                    75     9   108               108.42745
  391 Bend                    75    46    95               107.81498
  392 Bend                    76    24   140               164.24143
  393 Bend                    77    25   144               161.69477
  394 Bend                    78   114    79               108.58486
  395 Bend                    78   114   146               112.37675
  396 Bend                    79    37    93               111.35403
  397 Bend                    79   114   146               109.77472
  398 Bend                    81     5   129               111.01288
  399 Bend                    81     5   134               108.78221
  400 Bend                    82     8    65               108.70471
  401 Bend                    82     8    74               109.65947
  402 Bend                    82     8   133               109.72689
  403 Bend                    83    10   117               107.36222
  404 Bend                    83    10   149               109.09816
  405 Bend                    83    50   101               110.79177
  406 Bend                    84   139    91               107.33594
  407 Bend                    85   143    95               107.84127
  408 Bend                    86     6   137               111.49249
  409 Bend                    86     6   138               109.77852
  410 Bend                    88   140   109               112.62875
  411 Bend                    89   144   127               109.12778
  412 Bend                    91    42   136               110.08934
  413 Bend                    92    36    97               110.17907
  414 Bend                    94     8   133               108.43863
  415 Bend                    97   106   132               111.33508
  416 Bend                    98     9   108               107.19924
  417 Bend                   100    42    74               109.53011
  418 Bend                   100    42    91               110.31721
  419 Bend                   100    42   136               109.68838
  420 Bend                   103    12   104               109.82732
  421 Bend                   103   122   109               109.29021
  422 Bend                   105   122    65               112.21431
  423 Bend                   105   122   103               110.49969
  424 Bend                   105   122   109               109.32421
  425 Bend                   106    12    19               109.15346
  426 Bend                   106    12   103               109.88031
  427 Bend                   106    12   104               111.93365
  428 Bend                   106    16    45               105.72047
  429 Bend                   106    16    62               111.97751
  430 Bend                   106    16    80               111.43147
  431 Bend                   107    13   115               109.74740
  432 Bend                   107    13   147               106.74831
  433 Bend                   107   126   108               105.82958
  434 Bend                   107   126   127               110.23749
  435 Bend                   108   126   127               112.96490
  436 Bend                   111     6    57               108.80211
  437 Bend                   111     6   137               112.44146
  438 Bend                   111     6   138               110.56082
  439 Bend                   112    89   144               160.24097
  440 Bend                   113    84   139               167.86582
  441 Bend                   115    13   147               110.54201
  442 Bend                   116     4   125               110.86964
  443 Bend                   116     4   128               108.11402
  444 Bend                   116     4   136               109.99090
  445 Bend                   117    10   149               108.52503
  446 Bend                   119   130   135               111.79081
  447 Bend                   119   130   149               107.82023
  448 Bend                   120    12    19               110.10144
  449 Bend                   120    12    35               109.51066
  450 Bend                   120    12   103               110.77497
  451 Bend                   122   140    24               110.21965
  452 Bend                   122   140    59               106.44605
  453 Bend                   122   140    88               114.51552
  454 Bend                   125     4   128               109.12305
  455 Bend                   125     4   136               109.94548
  456 Bend                   126    59   140               171.74059
  457 Bend                   126   144    25               110.62092
  458 Bend                   126   144    63               107.72515
  459 Bend                   126   144    89               108.84236
  460 Bend                   128     4   136               108.74550
  461 Bend                   129     5   134               108.66312
  462 Bend                   130    63   144               170.46530
  463 Bend                   130    10     1               109.19501
  464 Bend                   130    10    83               110.05716
  465 Bend                   130    10   117               108.32576
  466 Bend                   135   130   149               111.06506
  467 Bend                   137     6   138               107.50142
  468 Bend                   140    88   150               144.87350
  469 Bend                   140   122    55               112.78950
  470 Bend                   140   122    65               108.06336
  471 Bend                   140   122   103               107.90341
  472 Bend                   141     4   116               112.27850
  473 Bend                   141     4   128               108.74286
  474 Bend                   141     4   136               108.89941
  475 Bend                   142     5    53               108.48161
  476 Bend                   142     5    81               112.07074
  477 Bend                   142     5   134               108.80806
  478 Bend                   143    50    57               107.90289
  479 Bend                   143    50    83               108.33286
  480 Bend                   143    50   101               112.06502
  481 Bend                   143    85   148               169.12430
  482 Bend                   144   126    59               109.70242
  483 Bend                   144   126   107               108.78740
  484 Bend                   144   126   108               113.39690
  485 Bend                   145     6    57               109.30898
  486 Bend                   145     6    86               111.33956
  487 Bend                   145     6   138               108.76132
  488 Bend                   151    18    26               110.96846
  489 Bend                   151    18    56               109.87313
  490 Bend                   151    18   146               109.38964
  491 Bend                   152    17    22               113.16686
  492 Bend                   152    17    44               111.94437
  493 Bend                   152    17    52               110.08960
  494 Bend                   155   154   156                99.19890
  495 Bend                   155   154   157                98.72977
  496 Bend                   155   154   158                98.63413
  497 Bend                   156   154   157               116.62261
  498 Bend                   156   154   158               116.44521
  499 Bend                   157   154   158               119.95919
  500 Torsion                  1    10    83    50         152.18426
  501 Torsion                  1    10   117   131        -128.21798
  502 Torsion                  1    10   130    63        -163.31704
  503 Torsion                  1    10   130   119         -48.45575
  504 Torsion                  1    10   130   135          73.95724
  505 Torsion                 10     1   149   130         177.74816
  506 Torsion                  2   133     8    65         167.33984
  507 Torsion                  2   133     8    74         -71.34995
  508 Torsion                  2   133     8    94          47.72478
  509 Torsion                  6    57    50    39         -89.44811
  510 Torsion                  6    57    50    83          27.96672
  511 Torsion                  6    57    50   101         148.71373
  512 Torsion                  7    52    17    22          56.14897
  513 Torsion                  7    52    17    44         -58.51414
  514 Torsion                  7    52    17    66        -179.51470
  515 Torsion                  8    65   122    55         -89.91169
  516 Torsion                  8    65   122   103          30.87755
  517 Torsion                  8    65   122   109         148.61606
  518 Torsion                  9    75    46    38         -66.81563
  519 Torsion                  9    75    46    53         173.63365
  520 Torsion                  9    75    46    95          51.98308
  521 Torsion                  9   108   126    59         -63.74336
  522 Torsion                  9   108   126   107          54.06857
  523 Torsion                  9   108   126   127         174.77520
  524 Torsion                 10    83    50    39          49.31961
  525 Torsion                 10    83    50    57         -68.52945
  526 Torsion                 10    83    50   101         170.93325
  527 Torsion                 11    45    16    43          19.74140
  528 Torsion                 11    45    16    62         -99.30177
  529 Torsion                 11    45    16    80         138.97956
  530 Torsion                 45    11   154   155        -177.96282
  531 Torsion                 11    45   154   156        -141.51901
  532 Torsion                 11    45   154   157         -22.71872
  533 Torsion                 11    45   154   158         100.06123
  534 Torsion                 12   103   122    55         156.21621
  535 Torsion                 12   103   122    65          36.03090
  536 Torsion                 12   103   122   109         -81.96889
  537 Torsion                 13   107   126    59         134.51679
  538 Torsion                 13   107   126   108          16.46147
  539 Torsion                 13   107   126   127        -106.00178
  540 Torsion                 13   115   110    44         179.26887
  541 Torsion                 13   115   110    47         -60.37591
  542 Torsion                 13   115   110    51          55.33122
  543 Torsion                 14    54   114    78         140.62192
  544 Torsion                 14    54   114    79        -100.58504
  545 Torsion                 14    54   114   146          18.12315
  546 Torsion                 14   119   130    63          39.09658
  547 Torsion                 14   119   130   135         160.26024
  548 Torsion                 14   119   130   149         -77.38855
  549 Torsion                 15    81     5    53          68.50898
  550 Torsion                 15    81     5   129         -53.12674
  551 Torsion                 15    81     5   134        -172.64581
  552 Torsion                 45    16   154   155         177.19284
  553 Torsion                 16    45   154   156          48.26052
  554 Torsion                 16    45   154   157         167.06081
  555 Torsion                 16    45   154   158         -70.15924
  556 Torsion                 17    44   110    47         -93.03622
  557 Torsion                 17    44   110    51         143.54472
  558 Torsion                 17    44   110   115          24.05727
  559 Torsion                 18   146   114    54         -36.05003
  560 Torsion                 18   146   114    78        -157.02845
  561 Torsion                 18   146   114    79          82.02258
  562 Torsion                 19    12   106    43         -30.63584
  563 Torsion                 19    12   106    97          86.49999
  564 Torsion                 19    12   106   132        -151.21679
  565 Torsion                 12    19    35   106        -175.83396
  566 Torsion                 19    12   103   122          33.95157
  567 Torsion                 12    19   104   120        -174.64453
  568 Torsion                 20   139    38    46         156.29929
  569 Torsion                 20   139    84   113         147.49478
  570 Torsion                 20   139    91    42        -152.81158
  571 Torsion                 21   143    50    57        -100.57238
  572 Torsion                 21   143    50    83         143.78949
  573 Torsion                 21   143    50   101          21.25415
  574 Torsion                 50    39    21   143         175.79100
  575 Torsion                 21   143    85   148         162.44395
  576 Torsion                 21   143    95    46        -167.90395
  577 Torsion                 22    17    44   110         -70.26673
  578 Torsion                 17    22    66   152        -175.00019
  579 Torsion                 23    13   107   126          56.64414
  580 Torsion                 23    13   115   110         148.97456
  581 Torsion                 23    13   147    61        -121.51334
  582 Torsion                 24   140    59   126         145.37042
  583 Torsion                 24   140    88   150         -82.18770
  584 Torsion                 24   140   122    55         -73.25601
  585 Torsion                 24   140   122    65          49.25289
  586 Torsion                 24   140   122   103         163.17322
  587 Torsion                122   109    24   140        -170.36136
  588 Torsion                 25   144    63   130        -166.78267
  589 Torsion                 25   144    89   112        -112.68468
  590 Torsion                 25   144   126    59         -69.45284
  591 Torsion                 25   144   126   107         171.01248
  592 Torsion                 25   144   126   108          53.55242
  593 Torsion                126   127    25   144        -178.17011
  594 Torsion                  3    56    26    18         177.91123
  595 Torsion                 18    26    68   151         178.77845
  596 Torsion                 26    18   146   114          -3.79206
  597 Torsion                 27    14    32   118        -136.68545
  598 Torsion                 27    14    54   114         -50.44314
  599 Torsion                 27    14   119   130         169.95606
  600 Torsion                 28    36    51   110         -21.96446
  601 Torsion                 36    28    92    64         178.57127
  602 Torsion                 28    36    97   106          86.09470
  603 Torsion                 29    37    47   110           6.40743
  604 Torsion                 29    37    79   114        -116.41438
  605 Torsion                 37    29    93    67        -178.34009
  606 Torsion                 30    19    12    35        -171.24566
  607 Torsion                 30    19    12   103         -51.68073
  608 Torsion                 30    19    12   104          66.92017
  609 Torsion                 31    80    16    43         145.77720
  610 Torsion                 31    80    16    45          30.92417
  611 Torsion                 31    80    16    62         -85.88101
  612 Torsion                 14    32    27    40         175.47214
  613 Torsion                 32    14    54   114          70.61801
  614 Torsion                 32    14   119   130          48.91218
  615 Torsion                 33     9    75    46        -104.92104
  616 Torsion                 33     9    98   123        -136.77809
  617 Torsion                 33     9   108   126         -95.63735
  618 Torsion                 34    42     8    65         -56.34360
  619 Torsion                 34    42     8    94          65.46439
  620 Torsion                 34    42     8   133        -176.29262
  621 Torsion                  8    74    34    42         179.90429
  622 Torsion                 34    42    91   139          92.98166
  623 Torsion                 34    42     4   116         -24.85372
  624 Torsion                 34    42     4   125          97.55127
  625 Torsion                 34    42     4   128        -143.06064
  626 Torsion                  4   136    34    42         179.91503
  627 Torsion                 35    12   103   122         152.90071
  628 Torsion                 12    35   104   120         177.88175
  629 Torsion                 35   106    16    45          26.04996
  630 Torsion                 35   106    16    62         140.64258
  631 Torsion                 35   106    16    80         -91.12689
  632 Torsion                 16    43    35   106         179.25778
  633 Torsion                 35   106    97    36         -68.90252
  634 Torsion                 71   132    35   106         178.83339
  635 Torsion                 36    51   110    44        -171.94949
  636 Torsion                 36    51   110    47          62.21455
  637 Torsion                 36    51   110   115         -53.24446
  638 Torsion                 36    97   106    43          47.61090
  639 Torsion                 36    97   106   132         169.11457
  640 Torsion                 37    47   110    44         150.89940
  641 Torsion                 37    47   110    51         -81.67602
  642 Torsion                 37    47   110   115          34.23555
  643 Torsion                 37    79   114    54          41.70527
  644 Torsion                 37    79   114    78         161.35003
  645 Torsion                 37    79   114   146         -75.44088
  646 Torsion                 38    46     5    81         -33.07826
  647 Torsion                 38    46     5   129          89.19085
  648 Torsion                 38    46     5   134        -151.34124
  649 Torsion                  5    53    38    46         175.85412
  650 Torsion                 38    46    95   143          87.73956
  651 Torsion                 72    20    38   139         179.80525
  652 Torsion                 38   139    84   113         -90.55393
  653 Torsion                 38   139    91    42          87.08478
  654 Torsion                 50    39   101    69        -178.26683
  655 Torsion                 73    21    39   143         178.97123
  656 Torsion                 39   143    85   148         -75.63331
  657 Torsion                 39   143    95    46          72.42657
  658 Torsion                 41   128     4   116          -3.72945
  659 Torsion                 41   128     4   125        -124.40219
  660 Torsion                 41   128     4   136         115.66770
  661 Torsion                 42    91   139    84         -31.57329
  662 Torsion                 43    16    45   154        -170.97492
  663 Torsion                 43    16    62   153         -89.33193
  664 Torsion                 43   106    12   103        -146.34700
  665 Torsion                 43   106    12   104          91.34725
  666 Torsion                 12    35    43   106         175.29870
  667 Torsion                 71   132    43   106        -177.35936
  668 Torsion                 44    17    22    48          78.01264
  669 Torsion                 17    44    66   152         174.20625
  670 Torsion                 45    16   106    97         -91.62013
  671 Torsion                 45    16   106   132         146.51455
  672 Torsion                 16    45    43   106         179.43429
  673 Torsion                 45    16    62   153          24.54484
  674 Torsion                 46    38   139    84          33.50928
  675 Torsion                 46    38   139    91         -83.48099
  676 Torsion                 46    75     9    98         133.00326
  677 Torsion                 46    75     9   108          16.76624
  678 Torsion                 46    95   143    85         -45.98506
  679 Torsion                 47    37    29    96        -108.16738
  680 Torsion                 47    37    79   114           1.10289
  681 Torsion                 37    47    93    67        -178.11627
  682 Torsion                 48    22    17    52         -35.38083
  683 Torsion                 48    22    17    66        -159.09310
  684 Torsion                 49    78   114    54        -101.24702
  685 Torsion                 49    78   114    79         139.83222
  686 Torsion                 49    78   114   146          18.20224
  687 Torsion                 50    57     6    86          99.84733
  688 Torsion                 50    57     6   137        -136.34294
  689 Torsion                 50    57     6   138         -19.65206
  690 Torsion                 50    83    10   117          31.21538
  691 Torsion                 50    83    10   149         -86.20602
  692 Torsion                 51    36    28    87          21.47114
  693 Torsion                 36    51    92    64         179.10474
  694 Torsion                 51    36    97   106         -29.12959
  695 Torsion                 52    17    44   110          45.42911
  696 Torsion                 17    52    66   152        -179.32228
  697 Torsion                  5    53   129   142        -177.83756
  698 Torsion                 53     5   134   121         161.90538
  699 Torsion                 53    46    38   139         122.92113
  700 Torsion                 53    46    95   143        -149.17884
  701 Torsion                 14    54    27    40        -173.93302
  702 Torsion                 54    14    32   118         102.90500
  703 Torsion                 54    14   119   130         -69.15910
  704 Torsion                 55   122   140    59         168.28795
  705 Torsion                 55   122   140    88          51.43580
  706 Torsion                122    55   109   140         179.34726
  707 Torsion                 56    18    26   102        -131.63255
  708 Torsion                 18    56    68   151         177.87828
  709 Torsion                 56    18   146   114         116.50978
  710 Torsion                  6    57    86   111         179.93162
  711 Torsion                  6    57   137   145         176.08055
  712 Torsion                 57     6   138   124        -115.56724
  713 Torsion                 57    50   143    85         135.49034
  714 Torsion                 57    50   143    95          19.07673
  715 Torsion                 50    57    39   143        -177.00219
  716 Torsion                 50    57   101    69         178.77453
  717 Torsion                 59   126   144    63         169.59997
  718 Torsion                 59   126   144    89          51.72421
  719 Torsion                126    59   127   144        -175.98088
  720 Torsion                 59   140    24    76        -171.54081
  721 Torsion                 59   140    88   150          35.94860
  722 Torsion                 59   140   122    65         -69.20314
  723 Torsion                 59   140   122   103          44.71719
  724 Torsion                122   109    59   140         177.75252
  725 Torsion                 61   147    13   107          -5.50303
  726 Torsion                 61   147    13   115         113.80906
  727 Torsion                 62    16   106    97          22.97249
  728 Torsion                 62    16   106   132         -98.89283
  729 Torsion                 16    62    43   106         177.57170
  730 Torsion                 62    16    45   154          69.98190
  731 Torsion                 70   135    63   130         177.50693
  732 Torsion                 63   130    10    83          73.98681
  733 Torsion                 63   130    10   117         -43.11532
  734 Torsion                 10   149    63   130         177.03153
  735 Torsion                 63   144    25    77        -162.08289
  736 Torsion                 63   144    89   112           8.70355
  737 Torsion                 63   144   126   107          50.06529
  738 Torsion                 63   144   126   108         -67.39477
  739 Torsion                126   127    63   144        -176.93180
  740 Torsion                 65     8    42    91          64.33765
  741 Torsion                 65     8    42   136        -175.95959
  742 Torsion                  8    65    74    42        -179.94703
  743 Torsion                  8    65    94    82        -176.24572
  744 Torsion                105    55    65   122        -178.79015
  745 Torsion                 65   122   140    88         173.94471
  746 Torsion                122    65   109   140         172.67235
  747 Torsion                 66    17    44   110         166.30685
  748 Torsion                 68    18    26   102         105.59070
  749 Torsion                  3    56    68    18        -176.62103
  750 Torsion                 68    18   146   114        -123.90782
  751 Torsion                 74     8    65   122         178.92889
  752 Torsion                  8    74    94    82         173.37223
  753 Torsion                 42    74    34   100        -179.01667
  754 Torsion                 74    42    91   139         -27.07115
  755 Torsion                 74    42     4   116          94.72604
  756 Torsion                 74    42     4   125        -142.86897
  757 Torsion                 74    42     4   128         -23.48088
  758 Torsion                  4   136    74    42         179.85490
  759 Torsion                 75     9    33    90         -41.04970
  760 Torsion                 75     9    98   123         -14.42280
  761 Torsion                 75     9   108   126         142.30149
  762 Torsion                 75    46    38   139           3.86426
  763 Torsion                 75    46     5    81          83.51152
  764 Torsion                 75    46     5   129        -154.21937
  765 Torsion                 75    46     5   134         -34.75146
  766 Torsion                  5    53    75    46        -175.45466
  767 Torsion                 75    46    95   143         -28.84284
  768 Torsion                 76    24   140    88         -55.43943
  769 Torsion                 76    24   140   109          68.89468
  770 Torsion                 77    25   144    89         -41.71797
  771 Torsion                 77    25   144   127          78.14374
  772 Torsion                 79    37    29    96           9.32722
  773 Torsion                 79    37    47   110        -109.72545
  774 Torsion                 37    79    93    67         176.37964
  775 Torsion                 80    16   106    97         151.20302
  776 Torsion                 80    16   106   132          29.33770
  777 Torsion                 16    80    43   106        -177.09865
  778 Torsion                 80    16    45   154         -51.73676
  779 Torsion                 80    16    62   153         142.75108
  780 Torsion                 81     5    46    95        -156.66089
  781 Torsion                  5    81    53    46        -178.20749
  782 Torsion                  5    81   129   142        -175.94128
  783 Torsion                 81     5   134   121          42.15027
  784 Torsion                 10    83     1    60         175.42304
  785 Torsion                 83    10   117   131          -6.52331
  786 Torsion                 83    10   130   119        -171.15189
  787 Torsion                 83    10   130   135         -48.73891
  788 Torsion                 10    83   149   130         179.05035
  789 Torsion                 83    50   143    85          19.85220
  790 Torsion                 83    50   143    95         -96.56140
  791 Torsion                 50    83    39   143         174.58045
  792 Torsion                 50    83   101    69         179.45796
  793 Torsion                 72    20    84   139        -177.20598
  794 Torsion                 73    21    85   143        -179.09587
  795 Torsion                 85   143    50   101        -102.68313
  796 Torsion                 50    39    85   143        -174.36494
  797 Torsion                  6    86   137   145        -173.35703
  798 Torsion                 86     6   138   124         124.45373
  799 Torsion                 87    28    36    92         143.34466
  800 Torsion                 87    28    36    97         -93.46836
  801 Torsion                 88   140    59   126          26.76866
  802 Torsion                 88   140   122   103         -72.13496
  803 Torsion                122   109    88   140         171.83557
  804 Torsion                 89   144    63   130          72.06898
  805 Torsion                 89   144   126   107         -67.81047
  806 Torsion                 89   144   126   108         174.72947
  807 Torsion                126   127    89   144         175.08237
  808 Torsion                 90    33     9    98          79.88452
  809 Torsion                 90    33     9   108        -161.49993
  810 Torsion                 42    91    34   100         179.70377
  811 Torsion                 91    42     8    94        -173.85436
  812 Torsion                 91    42     8   133         -55.61137
  813 Torsion                  8    74    91    42        -179.95084
  814 Torsion                 91    42     4   116        -146.60536
  815 Torsion                 91    42     4   125         -24.20037
  816 Torsion                 91    42     4   128          95.18773
  817 Torsion                  4   136    91    42        -179.76890
  818 Torsion                 72    20    91   139         177.38823
  819 Torsion                 91   139    84   113          27.03370
  820 Torsion                 92    36    51   110        -144.50952
  821 Torsion                 92    36    97   106        -149.56422
  822 Torsion                 93    37    29    96         130.35768
  823 Torsion                 93    37    47   110         127.58132
  824 Torsion                 93    37    79   114         123.34705
  825 Torsion                 94     8    65   122          57.15798
  826 Torsion                 94     8    42   136         -54.15160
  827 Torsion                  8    94    74    42        -179.95914
  828 Torsion                 95    46    38   139        -113.22203
  829 Torsion                 95    46     5   129         -34.39178
  830 Torsion                 95    46     5   134          85.07613
  831 Torsion                  5    53    95    46         179.74764
  832 Torsion                 73    21    95   143        -179.86091
  833 Torsion                 95   143    50   101         140.90326
  834 Torsion                 50    39    95   143         178.63065
  835 Torsion                 95   143    85   148          41.32196
  836 Torsion                 97    36    51   110          95.65627
  837 Torsion                 36    97    92    64        -177.74830
  838 Torsion                 97   106    12   103         -29.21117
  839 Torsion                 97   106    12   104        -151.51692
  840 Torsion                 12    35    97   106        -178.17881
  841 Torsion                 16    43    97   106        -177.15374
  842 Torsion                 71   132    97   106         178.51514
  843 Torsion                 98     9   108   126          25.07824
  844 Torsion                 99    23    13   107         -51.90140
  845 Torsion                 99    23    13   115        -172.45049
  846 Torsion                 99    23    13   147          63.86615
  847 Torsion                 50   101    39   143        -177.54438
  848 Torsion                102    26    18   146         -12.96494
  849 Torsion                103    12   106   132          93.07204
  850 Torsion                 12   103    35   106         176.24258
  851 Torsion                 12   103   104   120         176.88450
  852 Torsion                105    55   103   122        -173.75475
  853 Torsion                122   103   109   140        -172.13618
  854 Torsion                104    12   106   132         -29.23371
  855 Torsion                 12   104    35   106         179.55883
  856 Torsion                104    12   103   122         -84.74579
  857 Torsion                107    13   115   110          29.94737
  858 Torsion                107   126    59   140          18.92960
  859 Torsion                126   107   127   144        -179.09547
  860 Torsion                108     9    98   123         102.60129
  861 Torsion                108   126    59   140         134.54676
  862 Torsion                126   108   127   144         174.78923
  863 Torsion                105    55   109   122         173.02013
  864 Torsion                109   140    59   126         -94.81996
  865 Torsion                109   140    88   150         155.27855
  866 Torsion                110   115    13   147         -87.53548
  867 Torsion                112    89   144   127         127.38794
  868 Torsion                114    54    14   119        -172.82345
  869 Torsion                115    13   107   126         178.78038
  870 Torsion                  4   116   125   141        -178.11620
  871 Torsion                  4   116   136    42        -179.83060
  872 Torsion                 10   117     1    60         178.76611
  873 Torsion                117    10   130   119          71.74597
  874 Torsion                117    10   130   135        -165.84104
  875 Torsion                 10   117   149   130        -176.70338
  876 Torsion                118    32    14   119         -14.76977
  877 Torsion                 14   119    27    40         178.21121
  878 Torsion                119   130    63   144         -39.31100
  879 Torsion                 70   135   119   130        -178.38285
  880 Torsion                 10   149   119   130         179.63112
  881 Torsion                121   134     5   129         -78.82278
  882 Torsion                122    65     8   133         -61.59089
  883 Torsion                124   138     6   137           3.01164
  884 Torsion                  4   125   116    58         174.96367
  885 Torsion                  4   125   136    42         179.77173
  886 Torsion                126   107    13   147         -61.39376
  887 Torsion                127   126    59   140        -101.46957
  888 Torsion                127   144    63   130         -46.78325
  889 Torsion                  4   128   116    58         179.22217
  890 Torsion                  4   128   125   141         173.60379
  891 Torsion                  4   128   136    42        -179.93816
  892 Torsion                  5   129    53    46        -176.63513
  893 Torsion                131   117    10   149         111.27143
  894 Torsion                 12    35   132   106        -177.09029
  895 Torsion                 16    43   132   106         177.94271
  896 Torsion                133     8    42   136          64.09139
  897 Torsion                  8   133    74    42         179.90683
  898 Torsion                  8   133    94    82        -177.10147
  899 Torsion                  5   134    53    46         174.80574
  900 Torsion                  5   134   129   142         173.86254
  901 Torsion                135   130    63   144        -161.11838
  902 Torsion                 10   149   135   130        -176.76474
[...]
  714 Torsion                 57    50   143    95          18.25427   -0.82246
  715 Torsion                 50    57    39   143        -172.98073    4.02146
  716 Torsion                 50    57   101    69         178.95829    0.18375
  717 Torsion                 59   126   144    63         170.48567    0.88570
  718 Torsion                 59   126   144    89          52.27088    0.54667
  719 Torsion                126    59   127   144        -177.70091   -1.72003
  720 Torsion                 59   140    24    76         179.55068   -8.90851
  721 Torsion                 59   140    88   150          35.57064   -0.37797
  722 Torsion                 59   140   122    65         -68.59692    0.60622
  723 Torsion                 59   140   122   103          45.81178    1.09459
  724 Torsion                122   109    59   140         176.69468   -1.05784
  725 Torsion                 61   147    13   107          -4.24836    1.25467
  726 Torsion                 61   147    13   115         115.21780    1.40874
  727 Torsion                 62    16   106    97          19.89649   -3.07600
  728 Torsion                 62    16   106   132        -101.95619   -3.06335
  729 Torsion                 16    62    43   106        -179.72726    2.70104
  730 Torsion                 62    16    45   154          72.52566    2.54375
  731 Torsion                 70   135    63   130         177.18867   -0.31826
  732 Torsion                 63   130    10    83          73.88806   -0.09875
  733 Torsion                 63   130    10   117         -42.12328    0.99205
  734 Torsion                 10   149    63   130         174.45371   -2.57782
  735 Torsion                 63   144    25    77        -167.68943   -5.60654
  736 Torsion                 63   144    89   112           4.34416   -4.35939
  737 Torsion                 63   144   126   107          50.51505    0.44976
  738 Torsion                 63   144   126   108         -66.42911    0.96566
  739 Torsion                126   127    63   144        -178.40615   -1.47435
  740 Torsion                 65     8    42    91          65.53135    1.19370
  741 Torsion                 65     8    42   136        -176.01841   -0.05882
  742 Torsion                  8    65    74    42        -175.96530    3.98173
  743 Torsion                  8    65    94    82        -176.89809   -0.65237
  744 Torsion                105    55    65   122        -179.06839   -0.27824
  745 Torsion                 65   122   140    88         174.30461    0.35990
  746 Torsion                122    65   109   140         174.12546    1.45311
  747 Torsion                 66    17    44   110         167.30521    0.99836
  748 Torsion                 68    18    26   102         107.56966    1.97897
  749 Torsion                  3    56    68    18        -176.74550   -0.12447
  750 Torsion                 68    18   146   114        -125.15133   -1.24351
  751 Torsion                 74     8    65   122         174.77480   -4.15409
  752 Torsion                  8    74    94    82         173.92525    0.55302
  753 Torsion                 42    74    34   100        -179.88639   -0.86972
  754 Torsion                 74    42    91   139         -27.40090   -0.32976
  755 Torsion                 74    42     4   116          97.15675    2.43071
  756 Torsion                 74    42     4   125        -140.54368    2.32529
  757 Torsion                 74    42     4   128         -21.84142    1.63946
  758 Torsion                  4   136    74    42         176.69518   -3.15972
  759 Torsion                 75     9    33    90         -45.07613   -4.02642
  760 Torsion                 75     9    98   123         -16.72908   -2.30628
  761 Torsion                 75     9   108   126         144.24631    1.94482
  762 Torsion                 75    46    38   139          10.27811    6.41385
  763 Torsion                 75    46     5    81          87.33471    3.82319
  764 Torsion                 75    46     5   129        -149.79133    4.42804
  765 Torsion                 75    46     5   134         -30.70382    4.04764
  766 Torsion                  5    53    75    46        -177.42123   -1.96656
  767 Torsion                 75    46    95   143         -26.07674    2.76610
  768 Torsion                 76    24   140    88         -64.20521   -8.76577
  769 Torsion                 76    24   140   109          60.26898   -8.62570
  770 Torsion                 77    25   144    89         -47.07639   -5.35842
  771 Torsion                 77    25   144   127          72.73535   -5.40839
  772 Torsion                 79    37    29    96          10.78511    1.45789
  773 Torsion                 79    37    47   110        -109.38689    0.33855
  774 Torsion                 37    79    93    67         176.05754   -0.32210
  775 Torsion                 80    16   106    97         148.91963   -2.28339
  776 Torsion                 80    16   106   132          27.06695   -2.27075
  777 Torsion                 16    80    43   106        -176.59702    0.50163
  778 Torsion                 80    16    45   154         -49.22070    2.51606
  779 Torsion                 80    16    62   153         121.30659  -21.44449
  780 Torsion                 81     5    46    95        -153.50732    3.15357
  781 Torsion                  5    81    53    46        -176.88681    1.32068
  782 Torsion                  5    81   129   142        -176.69355   -0.75226
  783 Torsion                 81     5   134   121          38.55501   -3.59526
  784 Torsion                 10    83     1    60         175.89596    0.47293
  785 Torsion                 83    10   117   131          -3.88652    2.63679
  786 Torsion                 83    10   130   119        -172.17720   -1.02530
  787 Torsion                 83    10   130   135         -48.61838    0.12053
  788 Torsion                 10    83   149   130        -173.66094    7.28871
  789 Torsion                 83    50   143    85          18.86117   -0.99103
  790 Torsion                 83    50   143    95         -96.94025   -0.37885
  791 Torsion                 50    83    39   143         175.22948    0.64903
  792 Torsion                 50    83   101    69         179.34111   -0.11685
  793 Torsion                 72    20    84   139        -177.78893   -0.58295
  794 Torsion                 73    21    85   143        -178.28187    0.81400
  795 Torsion                 85   143    50   101        -103.16710   -0.48397
  796 Torsion                 50    39    85   143        -173.55071    0.81422
  797 Torsion                  6    86   137   145        -173.62171   -0.26468
  798 Torsion                 86     6   138   124         126.17624    1.72251
  799 Torsion                 87    28    36    92         145.28736    1.94270
  800 Torsion                 87    28    36    97         -91.67311    1.79525
  801 Torsion                 88   140    59   126          38.64764   11.87898
  802 Torsion                 88   140   122   103         -71.28669    0.84827
  803 Torsion                122   109    88   140         173.50171    1.66614
  804 Torsion                 89   144    63   130          59.47234  -12.59664
  805 Torsion                 89   144   126   107         -67.69974    0.11073
  806 Torsion                 89   144   126   108         175.35610    0.62663
  807 Torsion                126   127    89   144         176.12100    1.03863
  808 Torsion                 90    33     9    98          75.79118   -4.09335
  809 Torsion                 90    33     9   108        -165.55810   -4.05817
  810 Torsion                 42    91    34   100        -179.97999    0.31625
  811 Torsion                 91    42     8    94        -171.76279    2.09156
  812 Torsion                 91    42     8   133         -53.82101    1.79036
  813 Torsion                  8    74    91    42         176.66724   -3.38193
  814 Torsion                 91    42     4   116        -144.83376    1.77160
  815 Torsion                 91    42     4   125         -22.53419    1.66618
  816 Torsion                 91    42     4   128          96.16807    0.98034
  817 Torsion                  4   136    91    42         179.57636   -0.65474
  818 Torsion                 72    20    91   139         177.63146    0.24323
  819 Torsion                 91   139    84   113          26.67486   -0.35884
  820 Torsion                 92    36    51   110        -148.87839   -4.36887
  821 Torsion                 92    36    97   106        -154.61542   -5.05120
  822 Torsion                 93    37    29    96         131.88956    1.53188
  823 Torsion                 93    37    47   110         128.13958    0.55826
  824 Torsion                 93    37    79   114         121.16032   -2.18673
  825 Torsion                 94     8    65   122          52.81359   -4.34439
  826 Torsion                 94     8    42   136         -53.31255    0.83904
  827 Torsion                  8    94    74    42         176.04740   -3.99346
  828 Torsion                 95    46    38   139        -106.81512    6.40692
  829 Torsion                 95    46     5   129         -30.63336    3.75842
  830 Torsion                 95    46     5   134          88.45415    3.37802
  831 Torsion                  5    53    95    46        -178.27994    1.97242
  832 Torsion                 73    21    95   143         179.37024   -0.76884
  833 Torsion                 95   143    50   101         141.03148    0.12821
  834 Torsion                 50    39    95   143         174.28686   -4.34379
  835 Torsion                 95   143    85   148          33.77453   -7.54743
  836 Torsion                 97    36    51   110          90.97432   -4.68195
  837 Torsion                 36    97    92    64        -177.54727    0.20103
  838 Torsion                 97   106    12   103         -29.60673   -0.39555
  839 Torsion                 97   106    12   104        -152.05193   -0.53500
  840 Torsion                 12    35    97   106        -178.51444   -0.33563
  841 Torsion                 16    43    97   106        -178.85888   -1.70515
  842 Torsion                 71   132    97   106         177.13296   -1.38218
  843 Torsion                 98     9   108   126          26.74320    1.66496
  844 Torsion                 99    23    13   107         -52.54053   -0.63913
  845 Torsion                 99    23    13   115        -173.30123   -0.85074
  846 Torsion                 99    23    13   147          63.21974   -0.64640
  847 Torsion                 50   101    39   143         177.73580   -4.71982
  848 Torsion                102    26    18   146         -11.11608    1.84886
  849 Torsion                103    12   106   132          92.78549   -0.28656
  850 Torsion                 12   103    35   106         177.54457    1.30198
  851 Torsion                 12   103   104   120         177.24910    0.36460
  852 Torsion                105    55   103   122        -173.98975   -0.23500
  853 Torsion                122   103   109   140        -171.87441    0.26177
  854 Torsion                104    12   106   132         -29.65972   -0.42601
  855 Torsion                 12   104    35   106        -179.68927    0.75190
  856 Torsion                104    12   103   122         -88.92175   -4.17596
  857 Torsion                107    13   115   110          17.31430  -12.63307
  858 Torsion                107   126    59   140           6.69786  -12.23174
  859 Torsion                126   107   127   144        -178.39978    0.69569
  860 Torsion                108     9    98   123         100.73131   -1.86999
  861 Torsion                108   126    59   140         122.07662  -12.47014
  862 Torsion                126   108   127   144         175.95683    1.16760
  863 Torsion                105    55   109   122         173.44408    0.42395
  864 Torsion                109   140    59   126         -82.86748   11.95248
  865 Torsion                109   140    88   150         154.78606   -0.49249
  866 Torsion                110   115    13   147        -100.21776  -12.68229
  867 Torsion                112    89   144   127         123.12886   -4.25908
  868 Torsion                114    54    14   119        -172.17602    0.64743
  869 Torsion                115    13   107   126         171.71323   -7.06714
  870 Torsion                  4   116   125   141        -178.96675   -0.85055
  871 Torsion                  4   116   136    42         177.25797   -2.91143
  872 Torsion                 10   117     1    60         178.93023    0.16412
  873 Torsion                117    10   130   119          71.81146    0.06549
  874 Torsion                117    10   130   135        -164.62972    1.21132
  875 Torsion                 10   117   149   130        -178.77712   -2.07373
  876 Torsion                118    32    14   119         -15.61943   -0.84965
  877 Torsion                 14   119    27    40         178.63912    0.42791
  878 Torsion                119   130    63   144         -25.38752   13.92348
  879 Torsion                 70   135   119   130        -177.75793    0.62492
  880 Torsion                 10   149   119   130        -173.84478    6.52410
  881 Torsion                121   134     5   129         -82.66347   -3.84069
  882 Torsion                122    65     8   133         -66.28657   -4.69567
  883 Torsion                124   138     6   137           4.72140    1.70976
  884 Torsion                  4   125   116    58         175.01490    0.05123
  885 Torsion                  4   125   136    42         178.94891   -0.82282
  886 Torsion                126   107    13   147         -68.65681   -7.26304
  887 Torsion                127   126    59   140        -114.13918  -12.66961
  888 Torsion                127   144    63   130         -59.42860  -12.64534
  889 Torsion                  4   128   116    58         179.41526    0.19308
  890 Torsion                  4   128   125   141         174.00458    0.40080
  891 Torsion                  4   128   136    42        -176.17418    3.76398
  892 Torsion                  5   129    53    46        -179.29589   -2.66076
  893 Torsion                131   117    10   149         114.12287    2.85143
  894 Torsion                 12    35   132   106        -178.85614   -1.76585
  895 Torsion                 16    43   132   106         175.73904   -2.20367
  896 Torsion                133     8    42   136          64.62923    0.53784
  897 Torsion                  8   133    74    42         179.92917    0.02234
  898 Torsion                  8   133    94    82        -177.03828    0.06319
  899 Torsion                  5   134    53    46         176.12663    1.32089
  900 Torsion                  5   134   129   142         174.17899    0.31646
  901 Torsion                135   130    63   144        -147.04294   14.07545
  902 Torsion                 10   149   135   130         179.26950   -3.96575
  903 Torsion                  4   136   116    58        -174.44953   -0.24715
  904 Torsion                  4   136   125   141        -175.09705    0.41335
  905 Torsion                 42   136    34   100         179.86859    0.54091
  906 Torsion                  8    74   136    42        -176.14438    3.80988
  907 Torsion                136    42    91   139        -145.90240   -0.01191
  908 Torsion                  6   137    86   111         172.35715   -0.31986
  909 Torsion                  6   138    86   111        -172.37217    0.15679
  910 Torsion                  6   138   137   145         177.56497    0.41340
  911 Torsion                144    63   130   149          90.75508   14.13375
  912 Torsion                  3    56   146    18         178.32049   -0.14927
  913 Torsion                 18   146    68   151        -176.98874   -0.49399
  914 Torsion                 10   149     1    60        -174.99151   -0.63011
  915 Torsion                 70   135   149   130        -179.39372   -0.29235



                                NWChem Input Module
                                -------------------




                                     CITATION
                                     --------
                Please cite the following reference when publishing
                           results obtained with NWChem:

          E. Apra, E. J. Bylaska, W. A. de Jong, N. Govind, K. Kowalski,
       T. P. Straatsma, M. Valiev, H. J. J. van Dam, Y. Alexeev, J. Anchell,
       V. Anisimov, F. W. Aquino, R. Atta-Fynn, J. Autschbach, N. P. Bauman,
     J. C. Becca, D. E. Bernholdt, K. Bhaskaran-Nair, S. Bogatko, P. Borowski,
         J. Boschen, J. Brabec, A. Bruner, E. Cauet, Y. Chen, G. N. Chuev,
      C. J. Cramer, J. Daily, M. J. O. Deegan, T. H. Dunning Jr., M. Dupuis,
   K. G. Dyall, G. I. Fann, S. A. Fischer, A. Fonari, H. Fruchtl, L. Gagliardi,
      J. Garza, N. Gawande, S. Ghosh, K. Glaesemann, A. W. Gotz, J. Hammond,
       V. Helms, E. D. Hermes, K. Hirao, S. Hirata, M. Jacquelin, L. Jensen,
   B. G. Johnson, H. Jonsson, R. A. Kendall, M. Klemm, R. Kobayashi, V. Konkov,
      S. Krishnamoorthy, M. Krishnan, Z. Lin, R. D. Lins, R. J. Littlefield,
      A. J. Logsdail, K. Lopata, W. Ma, A. V. Marenich, J. Martin del Campo,
   D. Mejia-Rodriguez, J. E. Moore, J. M. Mullin, T. Nakajima, D. R. Nascimento,
    J. A. Nichols, P. J. Nichols, J. Nieplocha, A. Otero-de-la-Roza, B. Palmer,
    A. Panyala, T. Pirojsirikul, B. Peng, R. Peverati, J. Pittner, L. Pollack,
   R. M. Richard, P. Sadayappan, G. C. Schatz, W. A. Shelton, D. W. Silverstein,
   D. M. A. Smith, T. A. Soares, D. Song, M. Swart, H. L. Taylor, G. S. Thomas,
            V. Tipparaju, D. G. Truhlar, K. Tsemekhman, T. Van Voorhis,
      A. Vazquez-Mayagoitia, P. Verma, O. Villa, A. Vishnu, K. D. Vogiatzis,
        D. Wang, J. H. Weare, M. J. Williamson, T. L. Windus, K. Wolinski,
        A. T. Wong, Q. Wu, C. Yang, Q. Yu, M. Zacharias, Z. Zhang, Y. Zhao,
                                and R. J. Harrison
                        "NWChem: Past, present, and future
                         J. Chem. Phys. 152, 184102 (2020)
                               doi:10.1063/5.0004997

                                      AUTHORS
                                      -------
  E. Apra, E. J. Bylaska, N. Govind, K. Kowalski, M. Valiev, D. Mejia-Rodriguez,
       A. Kunitsa, N. P. Bauman, A. Panyala, W. A. de Jong, T. P. Straatsma,
   H. J. J. van Dam, D. Wang, T. L. Windus, J. Hammond, J. Autschbach, A. Woods,
    K. Bhaskaran-Nair, J. Brabec, K. Lopata, S. A. Fischer, S. Krishnamoorthy,
     M. Jacquelin, W. Ma, M. Klemm, O. Villa, Y. Chen, V. Anisimov, F. Aquino,
     S. Hirata, M. T. Hackler, E. Hermes, L. Jensen, J. E. Moore, J. C. Becca,
      V. Konjkov, T. Risthaus, M. Malagoli, A. Marenich, A. Otero-de-la-Roza,
        J. Mullin, P. Nichols, R. Peverati, J. Pittner, Y. Zhao, P.-D. Fan,
        A. Fonari, M. J. Williamson, R. J. Harrison, J. R. Rehr, M. Dupuis,
     D. Silverstein, D. M. A. Smith, J. Nieplocha, V. Tipparaju, M. Krishnan,
     B. E. Van Kuiken, A. Vazquez-Mayagoitia, M. Swart, Q. Wu, T. Van Voorhis,
     A. A. Auer, M. Nooijen, L. D. Crosby, E. Brown, G. Cisneros, G. I. Fann,
   H. Fruchtl, J. Garza, K. Hirao, R. A. Kendall, J. A. Nichols, K. Tsemekhman,
    K. Wolinski, J. Anchell, D. E. Bernholdt, P. Borowski, T. Clark, D. Clerc,
   H. Dachsel, M. J. O. Deegan, K. Dyall, D. Elwood, E. Glendening, M. Gutowski,
   A. C. Hess, J. Jaffe, B. G. Johnson, J. Ju, R. Kobayashi, R. Kutteh, Z. Lin,
   R. Littlefield, X. Long, B. Meng, T. Nakajima, S. Niu, L. Pollack, M. Rosing,
   K. Glaesemann, G. Sandrone, M. Stave, H. Taylor, G. Thomas, J. H. van Lenthe,
                               A. T. Wong, Z. Zhang.

 Total times  cpu:    16284.8s     wall:    17772.8s
