

 Parallel Execution: Process Information
 ==============================================================================
 Rank   Node Name                              NodeID   MyNodeRank  NodeMaster
    0   ubuntu-kch                                0          0          0
    1   ubuntu-kch                                0          1         -1
    2   ubuntu-kch                                0          2         -1
    3   ubuntu-kch                                0          3         -1
 ==============================================================================


May use up to 7570MB of RAM as shared memory on node 0

 *******************************************************************************
 *                                                                             *
 *  --------------------------------                                           *
 *   Amsterdam Modeling Suite (AMS)              2021.102                      *
 *  --------------------------------                                           *
 *                                               r95042 2021-06-07             *
 *                                                                             *
 *                                                                             *
 *                              =================                              *
 *                              |               |                              *
 *                              |     A M S     |                              *
 *                              |               |                              *
 *                              =================                              *
 *                                                                             *
 *                                                                             *
 *   Online information and documentation:  https://www.scm.com/support/       *
 *   E-mail:  support@scm.com   info@scm.com                                   *
 *                                                                             *
 *   Scientific publications using AMS results must be properly referenced     *
 *   See the User Manuals (or the web site) for recommended citations          *
 *   The terms and conditions of the End User License Agreement apply to       *
 *   the use of AMS, https://www.scm.com/license-terms/                        *
 *                                                                             *
 **********************  x86_64_linux_intel / intelmpi  ************************
 
 Licensed to: Dr. Miroslav Ilias / Matej Bel University, Department Chemistry, Fac. Natural Sciences / Banska Bystrica / SLOVAKIA
 SCM User ID: u17848
  
 AMS 2021.102  RunTime: Jul10-2021 20:24:24  ShM Nodes: 1  Procs: 4

 AMS jobname: ams
 AMS jobid  : 524278160

 Start   directory: /home/milias/work/projects/open-collection/theoretical_chemistry/projects/nmr_diplomovky/vanovci/derivative_2/ams/force_field/tmp.milias.864796.0.noindex/
 Results directory: /home/milias/work/projects/open-collection/theoretical_chemistry/projects/nmr_diplomovky/vanovci/derivative_2/ams/force_field/der2_geomopt_freq_uff.results/
 Scratch directory: /tmp/amstmp_ams_kid0.524278160/


 Communication costs MPI_COMM_WORLD:      0.250 usec per message,   0.0033 usec per 8-byte item
 Communication costs for intra-node:      0.270 usec per message,   0.0033 usec per 8-byte item

 RNG seed: 1337453612 328985042 1980992246 -946660435 -1085309553 2107307269 -1024913727 -865525130
       ***************************
       *  GEOMETRY OPTIMIZATION  *
       ***************************

FIRE optimizer config
       nMin:  5 steps
    dtStart:  0.2500 fs
      dtMax:  1.0000 fs
       fInc:  1.1000
       fDec:  0.5000
 alphaStart:  0.1000
     fAlpha:  0.9900
 Opt. latt.:  F
Convergence criteria:
       Energy:  0.000010 Ha per atom
    Gradients:  0.001000 Ha/Angstrom
         Step:  0.010000 Angstrom
Stress energy:  0.000500 Ha per atom
 
--------
Geometry
--------
Formula: C10H22NO3P
Atoms
  Index Symbol   x (angstrom)   y (angstrom)   z (angstrom)
      1      O     3.42718509    -0.50102490     0.21527510
      2      P     2.10500722    -0.66934426    -0.93412225
      3      O     1.51106629     0.96141582    -0.72818000
      4      O     1.01553963    -1.38035849     0.22141756
      5      C     0.38191113     0.91507503     0.10975499
      6      C    -0.12362735    -0.57049281     0.20030862
      7      C     0.81980067     1.47634978     1.48312925
      8      C    -0.67988506     1.87333725    -0.47117765
      9      C    -1.00818085    -0.99562086    -1.00456935
     10      C    -0.93197672    -0.86032848     1.48413856
     11      H    -0.05526358     1.64685609     2.14682298
     12      H     1.52371622     0.78465373     1.99028948
     13      H     1.33811186     2.45103662     1.35295140
     14      H    -0.88640704     1.64098338    -1.53694411
     15      H    -1.62800652     1.81042572     0.10370635
     16      H    -0.31820554     2.92369577    -0.43569002
     17      H    -2.00573108    -0.50819141    -0.96139910
     18      H    -0.53326382    -0.73434716    -1.97342593
     19      H    -1.16615662    -2.09577265    -0.99235969
     20      H    -1.78727965    -0.15849104     1.57967547
     21      H    -1.33125558    -1.89761479     1.46559477
     22      H    -0.29364954    -0.78211428     2.38897940
     23      C     4.55491844     0.25840169    -0.11862421
     24      C     5.77974943    -0.20863521     0.67982426
     25      N     6.99931109     0.49161127     0.21509756
     26      C     7.04831668     1.89730323     0.69575152
     27      H     8.07295872    -1.35301878     0.41238368
     28      H     7.96152827     2.11161834     1.29501548
     29      C     8.21639821    -0.26410946     0.58903569
     30      H     4.76063012     0.13627117    -1.20347145
     31      H     4.33389824     1.32671628     0.08333187
     32      H     5.88112759    -1.30587049     0.51349366
     33      H     5.62492426    -0.05358819     1.77263614
     34      H     8.45640811    -0.13246179     1.66819146
     35      H     6.17959683     2.08380632     1.30970789
     36      H     7.03286549     2.55647214    -0.15961835
     37      H     9.18050444    -0.09070120     0.13425139
 
Total System Charge             0.00000
Bonding info available!
 
 
------------------------
MM Engine configuration
------------------------
Force field type             UFF
 

Relaxing 111 nuclear degrees of freedom with FIRE.
 Rigid motions settings for: FIRE
 Atomic rotations (x,y,z):     T T T
 Atomic translations (x,y,z):  T T T
 Tolerance:                   1.000000000000000E-006
 
------------------------
UFF Engine configuration
------------------------
UFF Parameters file          general_db
UFF Elements file            elements_db
UFF MMAtomTypes file         mmatomtypes_db
 
  atom type UFF index
          1        16
          2        28
          3         8
          4         1
          5        12
-----------------------
Assumed Input Structure
-----------------------
Atoms
      O        6.4764412034   -0.9467998474    0.4068109834         O_3   0.000000000000
      P        3.9778871445   -1.2648773262   -1.7652352264       P_3+3   0.000000000000
      O        2.8555014531    1.8168125925   -1.3760607684         O_3   0.000000000000
      O        1.9190917647   -2.6084995025    0.4184185499         O_3   0.000000000000
      C        0.7217074306    1.7292411825    0.2074068632         C_3   0.000000000000
      C       -0.2336218251   -1.0780751659    0.3785284336         C_3   0.000000000000
      C        1.5491987387    2.7898967455    2.8027080890         C_3   0.000000000000
      C       -1.2847965654    3.5400943415   -0.8903967166         C_3   0.000000000000
      C       -1.9051856829   -1.8814507452   -1.8983609505         C_3   0.000000000000
      C       -1.7611807548   -1.6257852022    2.8046154025         C_3   0.000000000000
      H       -0.1044330308    3.1121069765    4.0569074685          H_   0.000000000000
      H        2.8794063425    1.4827806555    3.7611020321          H_   0.000000000000
      H        2.5286649407    4.6317879291    2.5567076092          H_   0.000000000000
      H       -1.6750665354    3.1010091636   -2.9044034325          H_   0.000000000000
      H       -3.0764864487    3.4212087745    0.1959765972          H_   0.000000000000
      H       -0.6013213164    5.5249842749   -0.8233348224          H_   0.000000000000
      H       -3.7902824281   -0.9603425826   -1.8167810045          H_   0.000000000000
      H       -1.0077225784   -1.3877150035   -3.7292345368          H_   0.000000000000
      H       -2.2037166313   -3.9604363275   -1.8752880377          H_   0.000000000000
      H       -3.3774690428   -0.2995046545    2.9851539954          H_   0.000000000000
      H       -2.5157084484   -3.5859722493    2.7695727199          H_   0.000000000000
      H       -0.5549172164   -1.4779817968    4.5145167900          H_   0.000000000000
      C        8.6075483696    0.4883084212   -0.2241672750         C_3   0.000000000000
      C       10.9221434840   -0.3942634078    1.2846816599         C_3   0.000000000000
      N       13.2267810161    0.9290106581    0.4064754777         N_3   0.000000000000
      C       13.3193881556    3.5853834892    1.3147798219         C_3   0.000000000000
      H       15.2556809885   -2.5568349431    0.7792922067          H_   0.000000000000
      H       15.0451079673    3.9903803474    2.4472245869          H_   0.000000000000
      C       15.5267423502   -0.4990945525    1.1131161308         C_3   0.000000000000
      H        8.9962871120    0.2575151950   -2.2742314426          H_   0.000000000000
      H        8.1898807320    2.5071304069    0.1574744163          H_   0.000000000000
      H       11.1137204428   -2.4677375761    0.9703623895          H_   0.000000000000
      H       10.6295663180   -0.1012670118    3.3497968157          H_   0.000000000000
      H       15.9802953298   -0.2503165076    3.1524249791          H_   0.000000000000
      H       11.6777455672    3.9378232442    2.4749892186          H_   0.000000000000
      H       13.2901896555    4.8310321902   -0.3016349685          H_   0.000000000000
      H       17.3486390742   -0.1714004364    0.2536983590          H_   0.000000000000
End

Bonds
    1      2    1.000000000000
    1     23    1.000000000000
    2      3    1.000000000000
    2      4    1.000000000000
    3      5    1.000000000000
    4      6    1.000000000000
    5      6    1.000000000000
    5      7    1.000000000000
    5      8    1.000000000000
    6      9    1.000000000000
    6     10    1.000000000000
    7     11    1.000000000000
    7     12    1.000000000000
    7     13    1.000000000000
    8     14    1.000000000000
    8     15    1.000000000000
    8     16    1.000000000000
    9     17    1.000000000000
    9     18    1.000000000000
    9     19    1.000000000000
   10     20    1.000000000000
   10     21    1.000000000000
   10     22    1.000000000000
   23     24    1.000000000000
   23     30    1.000000000000
   23     31    1.000000000000
   24     25    1.000000000000
   24     32    1.000000000000
   24     33    1.000000000000
   25     26    1.000000000000
   25     29    1.000000000000
   26     28    1.000000000000
   26     35    1.000000000000
   26     36    1.000000000000
   27     29    1.000000000000
   29     34    1.000000000000
   29     37    1.000000000000
End


Geometry at FIRE step 1:
 
--------
Geometry
--------
Formula: C10H22NO3P
Atoms
  Index Symbol   x (angstrom)   y (angstrom)   z (angstrom)
      1      O     3.42705694    -0.50144129     0.21613267
      2      P     2.10543069    -0.66908156    -0.93431478
      3      O     1.51101931     0.96137724    -0.72816541
      4      O     1.01557247    -1.38039147     0.22146766
      5      C     0.38190761     0.91501559     0.10978573
      6      C    -0.12360654    -0.57055614     0.20036523
      7      C     0.81980370     1.47631715     1.48314422
      8      C    -0.67993212     1.87325501    -0.47113888
      9      C    -1.00817578    -0.99571632    -1.00449158
     10      C    -0.93193394    -0.86039298     1.48421233
     11      H    -0.05525895     1.64681686     2.14685281
     12      H     1.52374858     0.78463657     1.99029164
     13      H     1.33808484     2.45101743     1.35294774
     14      H    -0.88646612     1.64088443    -1.53689901
     15      H    -1.62804079     1.81032943     0.10376317
     16      H    -0.31827307     2.92362168    -0.43566994
     17      H    -2.00573440    -0.50830699    -0.96131060
     18      H    -0.53328057    -0.73444138    -1.97336024
     19      H    -1.16612699    -2.09587061    -0.99226905
     20      H    -1.78724913    -0.15857283     1.57975488
     21      H    -1.33118980    -1.89768770     1.46568882
     22      H    -0.29359252    -0.78215454     2.38904183
     23      C     4.55461354     0.25855475    -0.11928512
     24      C     5.77975602    -0.20863215     0.67975730
     25      N     6.99953463     0.49185916     0.21481295
     26      C     7.04845545     1.89688255     0.69568829
     27      H     8.07297436    -1.35288869     0.41231545
     28      H     7.96149512     2.11176581     1.29490454
     29      C     8.21635155    -0.26447336     0.58956347
     30      H     4.76065366     0.13632110    -1.20351064
     31      H     4.33388390     1.32675509     0.08329518
     32      H     5.88111838    -1.30578948     0.51345910
     33      H     5.62493209    -0.05352429     1.77258423
     34      H     8.45630071    -0.13234702     1.66812840
     35      H     6.17944183     2.08419718     1.30982979
     36      H     7.03279516     2.55673333    -0.15990487
     37      H     9.18051528    -0.09012822     0.13371507
 
Total System Charge             0.00000
Bonding info available!
 

Geometry at FIRE step 2:
 
--------
Geometry
--------
Formula: C10H22NO3P
Atoms
  Index Symbol   x (angstrom)   y (angstrom)   z (angstrom)
      1      O     3.42667894    -0.50267144     0.21867697
      2      P     2.10669199    -0.66830438    -0.93487220
      3      O     1.51088219     0.96126855    -0.72812277
      4      O     1.01567558    -1.38048614     0.22160460
      5      C     0.38189684     0.91483761     0.10987764
      6      C    -0.12354480    -0.57074384     0.20053264
      7      C     0.81981301     1.47621949     1.48318919
      8      C    -0.68007154     1.87301128    -0.47102292
      9      C    -1.00816011    -0.99599878    -1.00426152
     10      C    -0.93180696    -0.86058492     1.48443054
     11      H    -0.05524499     1.64669941     2.14694195
     12      H     1.52384505     0.78458447     1.99029788
     13      H     1.33800474     2.45095990     1.35293793
     14      H    -0.88664144     1.64059183    -1.53676447
     15      H    -1.62814242     1.81004383     0.10393264
     16      H    -0.31847341     2.92340227    -0.43560897
     17      H    -2.00574421    -0.50864922    -0.96104841
     18      H    -0.53333014    -0.73471966    -1.97316580
     19      H    -1.16603907    -2.09616055    -0.99200144
     20      H    -1.78715860    -0.15881614     1.57999021
     21      H    -1.33099465    -1.89790463     1.46596673
     22      H    -0.29342334    -0.78227505     2.38922644
     23      C     4.55370221     0.25899381    -0.12122645
     24      C     5.77977601    -0.20860864     0.67954273
     25      N     7.00020083     0.49256707     0.21397023
     26      C     7.04886587     1.89564887     0.69550280
     27      H     8.07301976    -1.35250970     0.41211284
     28      H     7.96139839     2.11220051     1.29457619
     29      C     8.21621473    -0.26554539     0.59112427
     30      H     4.76072269     0.13646870    -1.20363752
     31      H     4.33383983     1.32687167     0.08318470
     32      H     5.88108978    -1.30555036     0.51335545
     33      H     5.62495406    -0.05333578     1.77242928
     34      H     8.45597984    -0.13200876     1.66795155
     35      H     6.17898303     2.08536003     1.31019411
     36      H     7.03258675     2.55750690    -0.16075268
     37      H     9.18053862    -0.08841948     0.13211803
 
Total System Charge             0.00000
Bonding info available!
 

Geometry at FIRE step 3:
 
--------
Geometry
--------
Formula: C10H22NO3P
Atoms
  Index Symbol   x (angstrom)   y (angstrom)   z (angstrom)
      1      O     3.42607041    -0.50465856     0.22282546
      2      P     2.10876651    -0.66704498    -0.93573134
      3      O     1.51066689     0.96111198    -0.72805554
      4      O     1.01586404    -1.38062920     0.22178585
      5      C     0.38187810     0.91454163     0.11002995
      6      C    -0.12344384    -0.57104918     0.20080346
      7      C     0.81982932     1.47605723     1.48326455
      8      C    -0.68029816     1.87261480    -0.47083048
      9      C    -1.00813226    -0.99645661    -1.00388883
     10      C    -0.93159959    -0.86090003     1.48478398
     11      H    -0.05522150     1.64650414     2.14708951
     12      H     1.52400406     0.78449527     1.99030747
     13      H     1.33787440     2.45086393     1.35292573
     14      H    -0.88692735     1.64011827    -1.53654250
     15      H    -1.62830799     1.80957844     0.10421214
     16      H    -0.31880004     2.92304589    -0.43550459
     17      H    -2.00576018    -0.50920473    -0.96062234
     18      H    -0.53341053    -0.73516883    -1.97285044
     19      H    -1.16589567    -2.09663078    -0.99156989
     20      H    -1.78701103    -0.15921522     1.58037292
     21      H    -1.33067646    -1.89826047     1.46641581
     22      H    -0.29314756    -0.78247541     2.38952531
     23      C     4.55219217     0.25965598    -0.12432171
     24      C     5.77980989    -0.20851929     0.67913606
     25      N     7.00129778     0.49362337     0.21260221
     26      C     7.04953036     1.89368873     0.69520760
     27      H     8.07309029    -1.35191687     0.41178190
     28      H     7.96124654     2.11289911     1.29404375
     29      C     8.21599772    -0.26726630     0.59365077
     30      H     4.76083225     0.13670725    -1.20388250
     31      H     4.33376257     1.32706664     0.08299870
     32      H     5.88103847    -1.30516462     0.51318245
     33      H     5.62498544    -0.05303226     1.77217299
     34      H     8.45544849    -0.13146531     1.66770024
     35      H     6.17823885     2.08726778     1.31079776
     36      H     7.03224800     2.55876331    -0.16212696
     37      H     9.18054470    -0.08560172     0.12949293
 
Total System Charge             0.00000
Bonding info available!
 

Geometry at FIRE step 4:
 
--------
Geometry
--------
Formula: C10H22NO3P
Atoms
  Index Symbol   x (angstrom)   y (angstrom)   z (angstrom)
      1      O     3.42526274    -0.50730895     0.22844551
      2      P     2.11161763    -0.66535596    -0.93678310
      3      O     1.51039387     0.96094580    -0.72796943
      4      O     1.01616475    -1.38079803     0.22193744
      5      C     0.38185031     0.91412827     0.11024153
      6      C    -0.12330582    -0.57146120     0.20116491
      7      C     0.81985395     1.47583054     1.48337115
      8      C    -0.68060360     1.87207958    -0.47056221
      9      C    -1.00808943    -0.99707070    -1.00338935
     10      C    -0.93131786    -0.86133179     1.48525761
     11      H    -0.05518796     1.64623120     2.14729432
     12      H     1.52422336     0.78436493     1.99031908
     13      H     1.33769846     2.45072909     1.35291758
     14      H    -0.88731481     1.63948455    -1.53623602
     15      H    -1.62853196     1.80894861     0.10459779
     16      H    -0.31924242     2.92256617    -0.43535215
     17      H    -2.00578169    -0.50995176    -0.96004831
     18      H    -0.53351842    -0.73576717    -1.97242695
     19      H    -1.16570127    -2.09726223    -0.99099586
     20      H    -1.78681124    -0.15976105     1.58088915
     21      H    -1.33024543    -1.89874728     1.46701517
     22      H    -0.29277413    -0.78275543     2.38992543
     23      C     4.55009344     0.26043462    -0.12835802
     24      C     5.77985774    -0.20828750     0.67845953
     25      N     7.00280766     0.49483942     0.21076249
     26      C     7.05041960     1.89114607     0.69482299
     27      H     8.07317827    -1.35117036     0.41133252
     28      H     7.96105431     2.11382278     1.29332898
     29      C     8.21571811    -0.26953811     0.59703166
     30      H     4.76097357     0.13702518    -1.20429947
     31      H     4.33364565     1.32734089     0.08273324
     32      H     5.88095801    -1.30465056     0.51293922
     33      H     5.62501813    -0.05262954     1.77181643
     34      H     8.45470998    -0.13074723     1.66744384
     35      H     6.17723975     2.08987910     1.31163722
     36      H     7.03179161     2.56045421    -0.16397080
     37      H     9.18048019    -0.08171280     0.12588925
 
Total System Charge             0.00000
Bonding info available!
 

Geometry at FIRE step 5:
 
--------
Geometry
--------
Formula: C10H22NO3P
Atoms
  Index Symbol   x (angstrom)   y (angstrom)   z (angstrom)
      1      O     3.42429836    -0.51049192     0.23535620
      2      P     2.11519921    -0.66330957    -0.93786876
      3      O     1.51009278     0.96082479    -0.72787202
      4      O     1.01661727    -1.38096077     0.22195204
      5      C     0.38181235     0.91359893     0.11051060
      6      C    -0.12313199    -0.57196471     0.20159752
      7      C     0.81988877     1.47553911     1.48351037
      8      C    -0.68097627     1.87142467    -0.47021849
      9      C    -1.00802753    -0.99781435    -1.00278497
     10      C    -0.93096956    -0.86187178     1.48583065
     11      H    -0.05514343     1.64588043     2.14755489
     12      H     1.52450035     0.78418739     1.99033063
     13      H     1.33748334     2.45055456     1.35292258
     14      H    -0.88779140     1.63871953    -1.53584876
     15      H    -1.62880666     1.80817541     0.10508463
     16      H    -0.31978605     2.92198187    -0.43514485
     17      H    -2.00580778    -0.51086025    -0.95934827
     18      H    -0.53364901    -0.73648444    -1.97191300
     19      H    -1.16546202    -2.09802846    -0.99030928
     20      H    -1.78656583    -0.16044146     1.58151978
     21      H    -1.32971554    -1.89935433     1.46773582
     22      H    -0.29231532    -0.78311518     2.39040873
     23      C     4.54741864     0.26118020    -0.13303387
     24      C     5.77991763    -0.20780938     0.67740217
     25      N     7.00470723     0.49595301     0.20852543
     26      C     7.05149174     1.88822015     0.69437522
     27      H     8.07327349    -1.35035724     0.41077893
     28      H     7.96084355     2.11491687     1.29246203
     29      C     8.21540295    -0.27222515     0.60111020
     30      H     4.76113295     0.13740504    -1.20496749
     31      H     4.33347901     1.32769444     0.08238123
     32      H     5.88083784    -1.30403185     0.51262400
     33      H     5.62504072    -0.05214950     1.77135758
     34      H     8.45376652    -0.12989765     1.66728571
     35      H     6.17602891     2.09314069     1.31270944
     36      H     7.03123551     2.56251212    -0.16620529
     37      H     9.18026434    -0.07679786     0.12137107
 
Total System Charge             0.00000
Bonding info available!
 

Geometry at FIRE step 6:
 
--------
Geometry
--------
Formula: C10H22NO3P
Atoms
  Index Symbol   x (angstrom)   y (angstrom)   z (angstrom)
      1      O     3.42323007    -0.51403552     0.24332086
      2      P     2.11945274    -0.66099938    -0.93877514
      3      O     1.50980369     0.96082005    -0.72777224
      4      O     1.01727309    -1.38107706     0.22168830
      5      C     0.38176398     0.91295834     0.11083360
      6      C    -0.12292075    -0.57253932     0.20207218
      7      C     0.81993614     1.47518221     1.48368386
      8      C    -0.68140083     1.87067457    -0.46979974
      9      C    -1.00794127    -0.99865205    -1.00210448
     10      C    -0.93056425    -0.86250925     1.48647596
     11      H    -0.05508639     1.64545189     2.14786891
     12      H     1.52483192     0.78395471     1.99033897
     13      H     1.33723769     2.45033937     1.35295225
     14      H    -0.88834065     1.63786113    -1.53538592
     15      H    -1.62912189     1.80728678     0.10566576
     16      H    -0.32041161     2.92131767    -0.43487417
     17      H    -2.00583702    -0.51189063    -0.95855115
     18      H    -0.53379571    -0.73728088    -1.97133179
     19      H    -1.16518606    -2.09889461    -0.98954935
     20      H    -1.78628356    -0.16124004     1.58223951
     21      H    -1.32910538    -1.90006711     1.46853978
     22      H    -0.29178739    -0.78355430     2.39095144
     23      C     4.54419010     0.26170390    -0.13795261
     24      C     5.77998261    -0.20696447     0.67582579
     25      N     7.00696435     0.49663887     0.20598931
     26      C     7.05268954     1.88516376     0.69389356
     27      H     8.07336397    -1.34959472     0.41014159
     28      H     7.96064484     2.11610911     1.29148270
     29      C     8.21509225    -0.27515318     0.60567631
     30      H     4.76128937     0.13782117    -1.20599003
     31      H     4.33324833     1.32812336     0.08193165
     32      H     5.88066173    -1.30333594     0.51223452
     33      H     5.62503884    -0.05162042     1.77078762
     34      H     8.45261884    -0.12897405     1.66736818
     35      H     6.17466536     2.09698501     1.31401095
     36      H     7.03060417     2.56484672    -0.16872646
     37      H     9.17978419    -0.07091232     0.11602189
 
Total System Charge             0.00000
Bonding info available!
 

Geometry at FIRE step 7:
 
--------
Geometry
--------
Formula: C10H22NO3P
Atoms
  Index Symbol   x (angstrom)   y (angstrom)   z (angstrom)
      1      O     3.42200541    -0.51810052     0.25293834
      2      P     2.12480422    -0.65828841    -0.93927397
      3      O     1.50955623     0.96103908    -0.72766946
      4      O     1.01828965    -1.38110204     0.22089566
      5      C     0.38170150     0.91214252     0.11124140
      6      C    -0.12263750    -0.57322189     0.20259418
      7      C     0.82000523     1.47471524     1.48391486
      8      C    -0.68190456     1.86977596    -0.46925602
      9      C    -1.00781226    -0.99962883    -1.00131029
     10      C    -0.93006622    -0.86330495     1.48722944
     11      H    -0.05500703     1.64489463     2.14826998
     12      H     1.52525404     0.78362675     1.99033949
     13      H     1.33694560     2.45005632     1.35302707
     14      H    -0.88900296     1.63686449    -1.53480023
     15      H    -1.62949947     1.80621927     0.10639996
     16      H    -0.32116405     2.92053166    -0.43449516
     17      H    -2.00587028    -0.51310570    -0.95760559
     18      H    -0.53396528    -0.73819107    -1.97064901
     19      H    -1.16485280    -2.09991088    -0.98868469
     20      H    -1.78594406    -0.16222676     1.58309576
     21      H    -1.32837047    -1.90094822     1.46946560
     22      H    -0.29115210    -0.78412425     2.39158222
     23      C     4.54006611     0.26179190    -0.14309576
     24      C     5.78004139    -0.20549657     0.67334316
     25      N     7.00979708     0.49651517     0.20300121
     26      C     7.05406466     1.88198169     0.69335413
     27      H     8.07344514    -1.34897799     0.40937903
     28      H     7.96048508     2.11743035     1.29033454
     29      C     8.21481941    -0.27841380     0.61094784
     30      H     4.76142225     0.13827879    -1.20764905
     31      H     4.33290083     1.32866537     0.08131005
     32      H     5.88037874    -1.30251421     0.51172028
     33      H     5.62499123    -0.05102132     1.77001160
     34      H     8.45112520    -0.12795587     1.66793423
     35      H     6.17308090     2.10177557     1.31569396
     36      H     7.02986107     2.56759620    -0.17167664
     37      H     9.17879316    -0.06342430     0.10932425
 
Total System Charge             0.00000
Bonding info available!
 

Geometry at FIRE step 8:
 
--------
Geometry
--------
Formula: C10H22NO3P
Atoms
  Index Symbol   x (angstrom)   y (angstrom)   z (angstrom)
      1      O     3.42069236    -0.52240178     0.26395692
      2      P     2.13128402    -0.65530317    -0.93885768
      3      O     1.50944635     0.96164567    -0.72757161
      4      O     1.01980930    -1.38095757     0.21922425
      5      C     0.38163276     0.91116210     0.11172749
      6      C    -0.12224491    -0.57398087     0.20308416
      7      C     0.82010283     1.47412149     1.48421277
      8      C    -0.68246540     1.86875721    -0.46857230
      9      C    -1.00762519    -1.00068616    -1.00044649
     10      C    -0.92947673    -0.86425852     1.48804975
     11      H    -0.05489710     1.64419531     2.14876156
     12      H     1.52577455     0.78317642     1.99032204
     13      H     1.33662030     2.44969598     1.35317252
     14      H    -0.88975781     1.63578918    -1.53408871
     15      H    -1.62992506     1.80500922     0.10729001
     16      H    -0.32201783     2.91965871    -0.43398041
     17      H    -2.00590362    -0.51444740    -0.95655153
     18      H    -0.53414474    -0.73914877    -1.96989854
     19      H    -1.16447211    -2.10102402    -0.98777998
     20      H    -1.78555817    -0.16338814     1.58405347
     21      H    -1.32753430    -1.90198567     1.47045311
     22      H    -0.29042985    -0.78483673     2.39226413
     23      C     4.53503322     0.26106646    -0.14770340
     24      C     5.78004890    -0.20320634     0.66962910
     25      N     7.01319223     0.49497201     0.19970660
     26      C     7.05550817     1.87910258     0.69276639
     27      H     8.07350346    -1.34878423     0.40853176
     28      H     7.96044428     2.11874581     1.28907701
     29      C     8.21470335    -0.28172680     0.61655921
     30      H     4.76145782     0.13871098    -1.21022512
     31      H     4.33238173     1.32929615     0.08046093
     32      H     5.87992507    -1.30158000     0.51106063
     33      H     5.62486782    -0.05039733     1.76893752
     34      H     8.44922721    -0.12695580     1.66937905
     35      H     6.17138703     2.10750898     1.31780013
     36      H     7.02904851     2.57061561    -0.17489561
     37      H     9.17694663    -0.05421721     0.10127325
 
Total System Charge             0.00000
Bonding info available!
 

Geometry at FIRE step 9:
 
--------
Geometry
--------
Formula: C10H22NO3P
Atoms
  Index Symbol   x (angstrom)   y (angstrom)   z (angstrom)
      1      O     3.41938374    -0.52648652     0.27582190
      2      P     2.13875864    -0.65225192    -0.93693161
      3      O     1.50960170     0.96279911    -0.72747524
      4      O     1.02193984    -1.38058237     0.21632740
      5      C     0.38158408     0.91008827     0.11225722
      6      C    -0.12167720    -0.57475258     0.20340267
      7      C     0.82023350     1.47339708     1.48457874
      8      C    -0.68304109     1.86767687    -0.46775016
      9      C    -1.00736864    -1.00172161    -0.99958809
     10      C    -0.92880324    -0.86534419     1.48886527
     11      H    -0.05474653     1.64336204     2.14933064
     12      H     1.52639217     0.78258648     1.99027169
     13      H     1.33628853     2.44925888     1.35340933
     14      H    -0.89055887     1.63473390    -1.53326955
     15      H    -1.63036827     1.80373531     0.10831187
     16      H    -0.32291663     2.91876340    -0.43331700
     17      H    -2.00592959    -0.51580958    -0.95546313
     18      H    -0.53431112    -0.74005098    -1.96913907
     19      H    -1.16406712    -2.10213925    -0.98693163
     20      H    -1.78514874    -0.16467092     1.58504514
     21      H    -1.32664919    -1.90313134     1.47140853
     22      H    -0.28966484    -0.78567955     2.39293672
     23      C     4.52929489     0.25919221    -0.15081298
     24      C     5.77991894    -0.20008922     0.66451308
     25      N     7.01700381     0.49155033     0.19636680
     26      C     7.05683745     1.87701234     0.69210030
     27      H     8.07353892    -1.34936721     0.40769089
     28      H     7.96063233     2.11985592     1.28781077
     29      C     8.21492475    -0.28471765     0.62189964
     30      H     4.76126572     0.13900103    -1.21395085
     31      H     4.33162504     1.32992813     0.07932934
     32      H     5.87921577    -1.30054210     0.51024777
     33      H     5.62464362    -0.04981361     1.76742189
     34      H     8.44688762    -0.12614525     1.67217470
     35      H     6.16978850     2.11403851     1.32031646
     36      H     7.02824692     2.57363411    -0.17810561
     37      H     9.17382968    -0.04337469     0.09207853
 
Total System Charge             0.00000
Bonding info available!
 

Geometry at FIRE step 10:
 
--------
Geometry
--------
Formula: C10H22NO3P
Atoms
  Index Symbol   x (angstrom)   y (angstrom)   z (angstrom)
      1      O     3.41816214    -0.52983397     0.28785666
      2      P     2.14695772    -0.64935122    -0.93297000
      3      O     1.51016362     0.96459638    -0.72734765
      4      O     1.02470161    -1.37998047     0.21197746
      5      C     0.38161146     0.90906709     0.11276262
      6      C    -0.12082690    -0.57544867     0.20335584
      7      C     0.82039876     1.47255392     1.48500360
      8      C    -0.68357755     1.86661045    -0.46680896
      9      C    -1.00703931    -1.00260749    -0.99882337
     10      C    -0.92804514    -0.86651458     1.48958767
     11      H    -0.05454173     1.64242833     2.14994775
     12      H     1.52710061     0.78185698     1.99016937
     13      H     1.33598725     2.44875742     1.35374356
     14      H    -0.89134338     1.63381318    -1.53237907
     15      H    -1.63078741     1.80250409     0.10941864
     16      H    -0.32378333     2.91792481    -0.43251456
     17      H    -2.00593759    -0.51706031    -0.95442751
     18      H    -0.53443527    -0.74078295    -1.96843784
     19      H    -1.16367076    -2.10313932    -0.98623867
     20      H    -1.78474325    -0.16598788     1.58598797
     21      H    -1.32578580    -1.90430534     1.47223223
     22      H    -0.28891442    -0.78661143     2.39353345
     23      C     4.52331191     0.25604124    -0.15157180
     24      C     5.77952801    -0.19648748     0.65814031
     25      N     7.02093375     0.48625059     0.19329634
     26      C     7.05783172     1.87605457     0.69124512
     27      H     8.07358441    -1.35109204     0.40699651
     28      H     7.96117352     2.12053517     1.28664455
     29      C     8.21570555    -0.28704242     0.62623777
     30      H     4.76063984     0.13898357    -1.21891283
     31      H     4.33055259     1.33039004     0.07786423
     32      H     5.87814391    -1.29937997     0.50928445
     33      H     5.62431095    -0.04933656     1.76524165
     34      H     8.44408138    -0.12573021     1.67678589
     35      H     6.16856635     2.12111067     1.32316478
     36      H     7.02756437     2.57629848    -0.18097755
     37      H     9.16900548    -0.03114132     0.08211376
 
Total System Charge             0.00000
Bonding info available!
 

Geometry at FIRE step 11:
 
--------
Geometry
--------
Formula: C10H22NO3P
Atoms
  Index Symbol   x (angstrom)   y (angstrom)   z (angstrom)
      1      O     3.41707911    -0.53194012     0.29949059
      2      P     2.15552625    -0.64674354    -0.92665855
      3      O     1.51127767     0.96702870    -0.72710420
      4      O     1.02798324    -1.37927231     0.20616207
      5      C     0.38181568     0.90832584     0.11314139
      6      C    -0.11953300    -0.57596299     0.20270770
      7      C     0.82059968     1.47162157     1.48546875
      8      C    -0.68401806     1.86563899    -0.46578274
      9      C    -1.00664414    -1.00320995    -0.99823519
     10      C    -0.92717229    -0.86770503     1.49012248
     11      H    -0.05426121     1.64145348     2.15057187
     12      H     1.52789737     0.78100891     1.98999243
     13      H     1.33576109     2.44821514     1.35416069
     14      H    -0.89204470     1.63313367    -1.53146162
     15      H    -1.63113513     1.80143277     0.11055296
     16      H    -0.32453267     2.91721972    -0.43160672
     17      H    -2.00591495    -0.51806468    -0.95351671
     18      H    -0.53448745    -0.74124249    -1.96785099
     19      H    -1.16332254    -2.10390342    -0.98577000
     20      H    -1.78436211    -0.16722826     1.58680638
     21      H    -1.32501958    -1.90540348     1.47285053
     22      H    -0.28823377    -0.78756018     2.39400278
     23      C     4.51781113     0.25181242    -0.14953951
     24      C     5.77874280    -0.19317929     0.65108554
     25      N     7.02451176     0.47974326     0.19079277
     26      C     7.05827830     1.87627263     0.68998535
     27      H     8.07372838    -1.35428510     0.40663161
     28      H     7.96219095     2.12056196     1.28564777
     29      C     8.21726682    -0.28849094     0.62886160
     30      H     4.75926357     0.13843974    -1.22497044
     31      H     4.32906647     1.33040914     0.07601515
     32      H     5.87657384    -1.29803249     0.50817118
     33      H     5.62388681    -0.04901722     1.76205803
     34      H     8.44077458    -0.12593810     1.68359582
     35      H     6.16806692     2.12841903     1.32619317
     36      H     7.02712522     2.57821837    -0.18320900
     37      H     9.16203904    -0.01783240     0.07181942
 
Total System Charge             0.00000
Bonding info available!
 

Geometry at FIRE step 12:
 
--------
Geometry
--------
Formula: C10H22NO3P
Atoms
  Index Symbol   x (angstrom)   y (angstrom)   z (angstrom)
      1      O     3.41616344    -0.53238998     0.31047245
      2      P     2.16404407    -0.64441551    -0.91812338
      3      O     1.51307428     0.96992757    -0.72658286
      4      O     1.03147361    -1.37875708     0.19923277
      5      C     0.38235679     0.90816093     0.11326542
      6      C    -0.11759680    -0.57618069     0.20122885
      7      C     0.82084337     1.47065720     1.48594772
      8      C    -0.68431204     1.86484566    -0.46472002
      9      C    -1.00620297    -1.00341160    -0.99787963
     10      C    -0.92610074    -0.86882889     1.49037561
     11      H    -0.05387068     1.64052484     2.15115911
     12      H     1.52879212     0.78009122     1.98971863
     13      H     1.33566046     2.44766651     1.35462166
     14      H    -0.89260772     1.63276819    -1.53055484
     15      H    -1.63136422     1.80063084     0.11166576
     16      H    -0.32508630     2.91670468    -0.43065076
     17      H    -2.00585014    -0.51870780    -0.95275019
     18      H    -0.53444818    -0.74136734    -1.96739996
     19      H    -1.16306705    -2.10432603    -0.98552226
     20      H    -1.78399995    -0.16826972     1.58746130
     21      H    -1.32441380    -1.90630395     1.47325551
     22      H    -0.28765561    -0.78841895     2.39433566
     23      C     4.51375742     0.24713370    -0.14504865
     24      C     5.77750244    -0.19137522     0.64444629
     25      N     7.02706380     0.47349335     0.18906120
     26      C     7.05804655     1.87728865     0.68803187
     27      H     8.07414165    -1.35913863     0.40679925
     28      H     7.96376924     2.11975108     1.28477940
     29      C     8.21970377    -0.28906637     0.62927387
     30      H     4.75668348     0.13709985    -1.23162640
     31      H     4.32705792     1.32961098     0.07374047
     32      H     5.87435197    -1.29642941     0.50688801
     33      H     5.62341740    -0.04887698     1.75742459
     34      H     8.43692353    -0.12700364     1.69272739
     35      H     6.16868475     2.13562458     1.32914141
     36      H     7.02705426     2.57902080    -0.18462616
     37      H     9.15259495    -0.00378946     0.06161330
 
Total System Charge             0.00000
Bonding info available!
 

Geometry at FIRE step 13:
 
--------
Geometry
--------
Formula: C10H22NO3P
Atoms
  Index Symbol   x (angstrom)   y (angstrom)   z (angstrom)
      1      O     3.41547650    -0.53093429     0.32104138
      2      P     2.17206979    -0.64214531    -0.90819019
      3      O     1.51562494     0.97294900    -0.72554497
      4      O     1.03463428    -1.37892528     0.19202452
      5      C     0.38344005     0.90884496     0.11302843
      6      C    -0.11487202    -0.57601010     0.19883113
      7      C     0.82115599     1.46975501     1.48641441
      8      C    -0.68442764     1.86431378    -0.46367734
      9      C    -1.00574635    -1.00315152    -0.99775709
     10      C    -0.92468012    -0.86977351     1.49026463
     11      H    -0.05332228     1.63974496     2.15168554
     12      H     1.52981376     0.77918029     1.98933767
     13      H     1.33573432     2.44715037     1.35507311
     14      H    -0.89301527     1.63272232    -1.52966080
     15      H    -1.63143968     1.80016543     0.11275328
     16      H    -0.32540187     2.91639245    -0.42971019
     17      H    -2.00574008    -0.51892989    -0.95204556
     18      H    -0.53432750    -0.74116819    -1.96704457
     19      H    -1.16294794    -2.10434636    -0.98537384
     20      H    -1.78359661    -0.16901369     1.58799043
     21      H    -1.32398843    -1.90689223     1.47354838
     22      H    -0.28715835    -0.78906068     2.39459756
     23      C     4.51209196     0.24297923    -0.13946503
     24      C     5.77597298    -0.19234446     0.63965817
     25      N     7.02779334     0.46943385     0.18812539
     26      C     7.05720453     1.87835424     0.68518673
     27      H     8.07508346    -1.36553903     0.40764340
     28      H     7.96588156     2.11800527     1.28379507
     29      C     8.22272069    -0.28899720     0.62750372
     30      H     4.75236964     0.13469296    -1.23794667
     31      H     4.32445962     1.32760824     0.07103018
     32      H     5.87136537    -1.29460651     0.50536879
     33      H     5.62296724    -0.04889825     1.75093737
     34      H     8.43250520    -0.12912609     1.70372644
     35      H     6.17078372     2.14238233     1.33161774
     36      H     7.02743964     2.57846429    -0.18533224
     37      H     9.14066065     0.01066699     0.05174739
 
Total System Charge             0.00000
Bonding info available!
 

Geometry at FIRE step 14:
 
--------
Geometry
--------
Formula: C10H22NO3P
Atoms
  Index Symbol   x (angstrom)   y (angstrom)   z (angstrom)
      1      O     3.41521865    -0.52739168     0.33178893
      2      P     2.17920972    -0.63959456    -0.89827684
      3      O     1.51893491     0.97570055    -0.72371979
      4      O     1.03682007    -1.38034586     0.18569886
      5      C     0.38526957     0.91047564     0.11242326
      6      C    -0.11139165    -0.57542452     0.19570688
      7      C     0.82160084     1.46903869     1.48686104
      8      C    -0.68434846     1.86413701    -0.46270028
      9      C    -1.00529945    -1.00243852    -0.99780993
     10      C    -0.92270935    -0.87040250     1.48971380
     11      H    -0.05255786     1.63919510     2.15217737
     12      H     1.53101428     0.77835528     1.98886134
     13      H     1.33602497     2.44669336     1.35548550
     14      H    -0.89330534     1.63293730    -1.52871445
     15      H    -1.63134411     1.80003805     0.11389902
     16      H    -0.32549377     2.91625204    -0.42881048
     17      H    -2.00559410    -0.51873173    -0.95120293
     18      H    -0.53417581    -0.74071874    -1.96668929
     19      H    -1.16300125    -2.10395036    -0.98509439
     20      H    -1.78301012    -0.16943236     1.58851900
     21      H    -1.32369390    -1.90709188     1.47392897
     22      H    -0.28664478    -0.78937857     2.39492521
     23      C     4.51329001     0.24021158    -0.13477621
     24      C     5.77464431    -0.19667412     0.63787195
     25      N     7.02599869     0.46897387     0.18785036
     26      C     7.05606535     1.87877361     0.68158601
     27      H     8.07687475    -1.37299036     0.40915783
     28      H     7.96835123     2.11530660     1.28220978
     29      C     8.22537439    -0.28854327     0.62422782
     30      H     4.74583254     0.13100078    -1.24272550
     31      H     4.32131229     1.32415279     0.06790734
     32      H     5.86761086    -1.29287834     0.50346949
     33      H     5.62258040    -0.04904545     1.74247153
     34      H     8.42754205    -0.13245723     1.71540448
     35      H     6.17462562     2.14836516     1.33313180
     36      H     7.02830880     2.57650816    -0.18576107
     37      H     9.12665073     0.02531783     0.04218594
 
Total System Charge             0.00000
Bonding info available!
 

Geometry at FIRE step 15:
 
--------
Geometry
--------
Formula: C10H22NO3P
Atoms
  Index Symbol   x (angstrom)   y (angstrom)   z (angstrom)
      1      O     3.41581605    -0.52136737     0.34319102
      2      P     2.18512495    -0.63653060    -0.88996641
      3      O     1.52299107     0.97794193    -0.72086204
      4      O     1.03747291    -1.38348600     0.18142239
      5      C     0.38799720     0.91285359     0.11161495
      6      C    -0.10746488    -0.57450502     0.19239372
      7      C     0.82229612     1.46864133     1.48731651
      8      C    -0.68404136     1.86444015    -0.46180453
      9      C    -1.00485872    -1.00131762    -0.99795501
     10      C    -0.91997495    -0.87055757     1.48863032
     11      H    -0.05151359     1.63889325     2.15272933
     12      H     1.53246633     0.77766344     1.98832483
     13      H     1.33657287     2.44629465     1.35590382
     14      H    -0.89356433     1.63333715    -1.52757046
     15      H    -1.63106367     1.80019098     0.11529460
     16      H    -0.32542870     2.91624455    -0.42789272
     17      H    -2.00542530    -0.51813528    -0.94993732
     18      H    -0.53407261    -0.74009714    -1.96623661
     19      H    -1.16325053    -2.10312963    -0.98441448
     20      H    -1.78199050    -0.16960354     1.58922031
     21      H    -1.32339857    -1.90687398     1.47462081
     22      H    -0.28594096    -0.78932922     2.39547506
     23      C     4.51704914     0.23903595    -0.13270340
     24      C     5.77424794    -0.20362406     0.63927531
     25      N     7.02129330     0.47199831     0.18809859
     26      C     7.05512747     1.87841818     0.67786660
     27      H     8.07987740    -1.38062445     0.41114786
     28      H     7.97087867     2.11164060     1.27933452
     29      C     8.22594373    -0.28770794     0.62060525
     30      H     4.73669393     0.12585510    -1.24475091
     31      H     4.31782291     1.31925440     0.06440436
     32      H     5.86324638    -1.29200028     0.50093638
     33      H     5.62223464    -0.04930343     1.73240454
     34      H     8.42209590    -0.13714630     1.72586515
     35      H     6.18036815     2.15323128     1.33315006
     36      H     7.02964335     2.57327661    -0.18659463
     37      H     9.11131332     0.04007133     0.03264461
 
Total System Charge             0.00000
Bonding info available!
 

Geometry at FIRE step 16:
 
--------
Geometry
--------
Formula: C10H22NO3P
Atoms
  Index Symbol   x (angstrom)   y (angstrom)   z (angstrom)
      1      O     3.41780069    -0.51215032     0.35494827
      2      P     2.18957567    -0.63314161    -0.88434479
      3      O     1.52778013     0.97979860    -0.71688808
      4      O     1.03643925    -1.38836731     0.17989304
      5      C     0.39159727     0.91535985     0.11101781
      6      C    -0.10375285    -0.57353519     0.18977204
      7      C     0.82340714     1.46864670     1.48786138
      8      C    -0.68341217     1.86534287    -0.46095512
      9      C    -1.00436573    -0.99984376    -0.99812592
     10      C    -0.91637603    -0.87011081     1.48693643
     11      H    -0.05015162     1.63873139     2.15349463
     12      H     1.53423210     0.77707880     1.98778264
     13      H     1.33740795     2.44591633     1.35649557
     14      H    -0.89390208     1.63387762    -1.52603774
     15      H    -1.63056339     1.80050378     0.11720526
     16      H    -0.32531457     2.91637614    -0.42678902
     17      H    -2.00522102    -0.51715511    -0.94798449
     18      H    -0.53408036    -0.73932036    -1.96569716
     19      H    -1.16367768    -2.10184965    -0.98316688
     20      H    -1.78017178    -0.16975950     1.59020843
     21      H    -1.32287059    -1.90627335     1.47571962
     22      H    -0.28481922    -0.78899950     2.39630416
     23      C     4.52204626     0.23856847    -0.13357231
     24      C     5.77534493    -0.21068113     0.64239953
     25      N     7.01400799     0.47617320     0.18889514
     26      C     7.05494757     1.87802016     0.67516423
     27      H     8.08440374    -1.38713227     0.41322499
     28      H     7.97312330     2.10699568     1.27447565
     29      C     8.22216356    -0.28608936     0.61800365
     30      H     4.72487813     0.11916971    -1.24321804
     31      H     4.31445885     1.31335480     0.06055623
     32      H     5.85868725    -1.29320418     0.49742806
     33      H     5.62179638    -0.04968919     1.72196627
     34      H     8.41624178    -0.14329721     1.73266268
     35      H     6.18793823     2.15664614     1.33129342
     36      H     7.03138708     2.56907272    -0.18857560
     37      H     9.09559895     0.05491021     0.02282839
 
Total System Charge             0.00000
Bonding info available!
 

Geometry at FIRE step 17:
 
--------
Geometry
--------
Formula: C10H22NO3P
Atoms
  Index Symbol   x (angstrom)   y (angstrom)   z (angstrom)
      1      O     3.42115332    -0.49923208     0.36555711
      2      P     2.19259967    -0.63024276    -0.88104527
      3      O     1.53324441     0.98179561    -0.71208763
      4      O     1.03436374    -1.39412136     0.18071634
      5      C     0.39568871     0.91707131     0.11121985
      6      C    -0.10106640    -0.57306371     0.18870550
      7      C     0.82505235     1.46896573     1.48861306
      8      C    -0.68227833     1.86679025    -0.46005929
      9      C    -1.00369869    -0.99807784    -0.99832730
     10      C    -0.91216566    -0.86913374     1.48472754
     11      H    -0.04853152     1.63843302     2.15457985
     12      H     1.53628506     0.77648112     1.98727893
     13      H     1.33851724     2.44550590     1.35752222
     14      H    -0.89437461     1.63457384    -1.52404098
     15      H    -1.62974751     1.80079686     0.11977338
     16      H    -0.32525364     2.91675671    -0.42530629
     17      H    -2.00488086    -0.51580526    -0.94535147
     18      H    -0.53413038    -0.73830352    -1.96535431
     19      H    -1.16416144    -2.10006014    -0.98152518
     20      H    -1.77717765    -0.17027651     1.59131940
     21      H    -1.32180066    -1.90539194     1.47695081
     22      H    -0.28309982    -0.78865474     2.39716215
     23      C     4.52628878     0.23722934    -0.13543414
     24      C     5.77737872    -0.21452768     0.64424078
     25      N     7.00554924     0.47797248     0.19047813
     26      C     7.05584197     1.87860219     0.67447131
     27      H     8.09047533    -1.39085055     0.41497473
     28      H     7.97494665     2.10151913     1.26748652
     29      C     8.21265255    -0.28324133     0.61736720
     30      H     4.71090080     0.11098105    -1.23832561
     31      H     4.31197339     1.30739323     0.05640428
     32      H     5.85462584    -1.29765571     0.49271207
     33      H     5.62102168    -0.05019640     1.71334325
     34      H     8.40995740    -0.15076062     1.73369872
     35      H     6.19674812     2.15849936     1.32780052
     36      H     7.03345902     2.56440097    -0.19206655
     37      H     9.08022825     0.06977115     0.01300271
 
Total System Charge             0.00000
Bonding info available!
 

Geometry at FIRE step 18:
 
--------
Geometry
--------
Formula: C10H22NO3P
Atoms
  Index Symbol   x (angstrom)   y (angstrom)   z (angstrom)
      1      O     3.42441323    -0.48321192     0.37306695
      2      P     2.19458292    -0.62889620    -0.87823504
      3      O     1.53918463     0.98434131    -0.70711326
      4      O     1.03257340    -1.39908345     0.18258555
      5      C     0.39957893     0.91725994     0.11266367
      6      C    -0.09982896    -0.57375215     0.18943071
      7      C     0.82717310     1.46927100     1.48968237
      8      C    -0.68037542     1.86836741    -0.45900368
      9      C    -1.00269358    -0.99610822    -0.99867063
     10      C    -0.90804626    -0.86807391     1.48244818
     11      H    -0.04684637     1.63762005     2.15587693
     12      H     1.53846111     0.77571844     1.98680196
     13      H     1.33983726     2.44507052     1.35919987
     14      H    -0.89488151     1.63546235    -1.52182763
     15      H    -1.62838565     1.80086305     0.12274797
     16      H    -0.32525949     2.91762026    -0.42343299
     17      H    -2.00414510    -0.51412237    -0.94251181
     18      H    -0.53390266    -0.73690380    -1.96584680
     19      H    -1.16443577    -2.09772821    -0.98011506
     20      H    -1.77276130    -0.17152772     1.59192730
     21      H    -1.31985323    -1.90432821     1.47755287
     22      H    -0.28074364    -0.78865325     2.39735887
     23      C     4.52825565     0.23450572    -0.13526157
     24      C     5.77801513    -0.21386520     0.64225834
     25      N     6.99787098     0.47604233     0.19306194
     26      C     7.05765389     1.87991396     0.67556557
     27      H     8.09768409    -1.38991205     0.41627594
     28      H     7.97668674     2.09571305     1.25918241
     29      C     8.19870509    -0.27955016     0.61866443
     30      H     4.69578636     0.10127506    -1.23111333
     31      H     4.31134944     1.30252945     0.05198871
     32      H     5.85185866    -1.30556224     0.48690467
     33      H     5.61961716    -0.05071017     1.70914707
     34      H     8.40293165    -0.15896441     1.72819061
     35      H     6.20558952     2.15908454     1.32380573
     36      H     7.03581700     2.55985028    -0.19672284
     37      H     9.06511811     0.08438827     0.00464841
 
Total System Charge             0.00000
Bonding info available!
 

Geometry at FIRE step 19:
 
--------
Geometry
--------
Formula: C10H22NO3P
Atoms
  Index Symbol   x (angstrom)   y (angstrom)   z (angstrom)
      1      O     3.42412840    -0.48318625     0.37278041
      2      P     2.19455556    -0.62905138    -0.87810631
      3      O     1.53916869     0.98433591    -0.70716746
      4      O     1.03271602    -1.39887048     0.18256400
      5      C     0.39950408     0.91714255     0.11274887
      6      C    -0.09990242    -0.57386659     0.18950153
      7      C     0.82718078     1.46922755     1.48971220
      8      C    -0.68029483     1.86830941    -0.45898613
      9      C    -1.00265138    -0.99610807    -0.99870225
     10      C    -0.90813460    -0.86814481     1.48251211
     11      H    -0.04686698     1.63755195     2.15585700
     12      H     1.53844706     0.77569905     1.98679816
     13      H     1.33984547     2.44508057     1.35925086
     14      H    -0.89485578     1.63547458    -1.52186706
     15      H    -1.62830679     1.80082914     0.12271054
     16      H    -0.32525214     2.91768192    -0.42343348
     17      H    -2.00407763    -0.51410336    -0.94257583
     18      H    -0.53383138    -0.73686701    -1.96598494
     19      H    -1.16438643    -2.09769017    -0.98021602
     20      H    -1.77265646    -0.17159380     1.59179714
     21      H    -1.31976189    -1.90431877     1.47740904
     22      H    -0.28070391    -0.78870358     2.39721954
     23      C     4.52803841     0.23458032    -0.13499403
     24      C     5.77762130    -0.21376930     0.64201429
     25      N     6.99804207     0.47600742     0.19311003
     26      C     7.05767169     1.87977688     0.67554194
     27      H     8.09769326    -1.38940479     0.41626487
     28      H     7.97675568     2.09576824     1.25922895
     29      C     8.19876475    -0.27962328     0.61871405
     30      H     4.69581775     0.10114055    -1.23103300
     31      H     4.31159382     1.30271540     0.05197608
     32      H     5.85201179    -1.30570759     0.48687178
     33      H     5.61954143    -0.05069609     1.70967137
     34      H     8.40282234    -0.15892959     1.72777674
     35      H     6.20544285     2.15904311     1.32393037
     36      H     7.03584303     2.55990043    -0.19672573
     37      H     9.06506147     0.08431330     0.00501280
 
Total System Charge             0.00000
Bonding info available!
 

Geometry at FIRE step 20:
 
--------
Geometry
--------
Formula: C10H22NO3P
Atoms
  Index Symbol   x (angstrom)   y (angstrom)   z (angstrom)
      1      O     3.42328548    -0.48311402     0.37196079
      2      P     2.19446742    -0.62949737    -0.87775518
      3      O     1.53911470     0.98430607    -0.70732348
      4      O     1.03312805    -1.39825261     0.18252199
      5      C     0.39928950     0.91680040     0.11299580
      6      C    -0.10011528    -0.57419438     0.18970986
      7      C     0.82720307     1.46910116     1.48980050
      8      C    -0.68005688     1.86814061    -0.45893565
      9      C    -1.00252482    -0.99610747    -0.99879829
     10      C    -0.90838924    -0.86835500     1.48269774
     11      H    -0.04692695     1.63735178     2.15579777
     12      H     1.53840710     0.77564267     1.98678787
     13      H     1.33987099     2.44511107     1.35940128
     14      H    -0.89477751     1.63551051    -1.52198327
     15      H    -1.62807029     1.80072958     0.12259885
     16      H    -0.32522860     2.91786360    -0.42343629
     17      H    -2.00387696    -0.51404523    -0.94276444
     18      H    -0.53362033    -0.73675844    -1.96639175
     19      H    -1.16424094    -2.09757698    -0.98051383
     20      H    -1.77234781    -0.17178444     1.59141196
     21      H    -1.31949216    -1.90429160     1.47698468
     22      H    -0.28058409    -0.78885034     2.39680896
     23      C     4.52738707     0.23481130    -0.13424047
     24      C     5.77648404    -0.21349755     0.64133030
     25      N     6.99852323     0.47589462     0.19324450
     26      C     7.05772632     1.87938222     0.67547678
     27      H     8.09771873    -1.38790879     0.41622833
     28      H     7.97696035     2.09592937     1.25936097
     29      C     8.19893409    -0.27982781     0.61885543
     30      H     4.69590862     0.10073694    -1.23078193
     31      H     4.31232174     1.30327146     0.05193933
     32      H     5.85246055    -1.30613510     0.48677313
     33      H     5.61931374    -0.05065894     1.71121393
     34      H     8.40249870    -0.15882732     1.72655238
     35      H     6.20501177     2.15891377     1.32429433
     36      H     7.03592194     2.56004287    -0.19673766
     37      H     9.06489973     0.08408676     0.00609719
 
Total System Charge             0.00000
Bonding info available!
 

Geometry at FIRE step 21:
 
--------
Geometry
--------
Formula: C10H22NO3P
Atoms
  Index Symbol   x (angstrom)   y (angstrom)   z (angstrom)
      1      O     3.42191592    -0.48300857     0.37072796
      2      P     2.19429810    -0.63017595    -0.87728917
      3      O     1.53900279     0.98420910    -0.70756178
      4      O     1.03376202    -1.39729223     0.18253031
      5      C     0.39896520     0.91626307     0.11337900
      6      C    -0.10044496    -0.57468873     0.19004411
      7      C     0.82723797     1.46890358     1.48994398
      8      C    -0.67967211     1.86787685    -0.45885885
      9      C    -1.00231305    -0.99610557    -0.99896331
     10      C    -0.90877867    -0.86869740     1.48298618
     11      H    -0.04702090     1.63703123     2.15570096
     12      H     1.53834801     0.77555441     1.98677474
     13      H     1.33991673     2.44516317     1.35964437
     14      H    -0.89464269     1.63556805    -1.52217006
     15      H    -1.62767488     1.80057063     0.12241440
     16      H    -0.32518396     2.91815584    -0.42344546
     17      H    -2.00354732    -0.51394385    -0.94306784
     18      H    -0.53327704    -0.73658288    -1.96704554
     19      H    -1.16400635    -2.09739086    -0.98099457
     20      H    -1.77185207    -0.17207693     1.59078625
     21      H    -1.31905591    -1.90425064     1.47629955
     22      H    -0.28038117    -0.78908134     2.39614820
     23      C     4.52630028     0.23522136    -0.13314814
     24      C     5.77473534    -0.21309888     0.64035406
     25      N     6.99921607     0.47567911     0.19343558
     26      C     7.05782122     1.87877912     0.67538745
     27      H     8.09775415    -1.38549731     0.41615486
     28      H     7.97729530     2.09618313     1.25955515
     29      C     8.19918263    -0.28011774     0.61906498
     30      H     4.69604877     0.10006139    -1.23032746
     31      H     4.31352103     1.30419596     0.05188163
     32      H     5.85317378    -1.30681997     0.48660797
     33      H     5.61893103    -0.05061497     1.71368774
     34      H     8.40197233    -0.15866384     1.72456534
     35      H     6.20432225     2.15867947     1.32486825
     36      H     7.03605687     2.56025301    -0.19676876
     37      H     9.06465838     0.08370254     0.00788032
 
Total System Charge             0.00000
Bonding info available!
 

Geometry at FIRE step 22:
 
--------
Geometry
--------
Formula: C10H22NO3P
Atoms
  Index Symbol   x (angstrom)   y (angstrom)   z (angstrom)
      1      O     3.42006806    -0.48288691     0.36927350
      2      P     2.19400953    -0.63099507    -0.87688344
      3      O     1.53879912     0.98397547    -0.70785131
      4      O     1.03454057    -1.39609002     0.18270593
      5      C     0.39857962     0.91557860     0.11385845
      6      C    -0.10085403    -0.57527369     0.19048625
      7      C     0.82728314     1.46865388     1.49013756
      8      C    -0.67915638     1.86754528    -0.45876677
      9      C    -1.00201297    -0.99609943    -0.99920623
     10      C    -0.90924980    -0.86915990     1.48334415
     11      H    -0.04714003     1.63660794     2.15557023
     12      H     1.53828147     0.77544183     1.98676553
     13      H     1.33998781     2.44523820     1.35997080
     14      H    -0.89444363     1.63564466    -1.52241640
     15      H    -1.62711687     1.80036220     0.12216031
     16      H    -0.32510951     2.91854336    -0.42346646
     17      H    -2.00309417    -0.51379122    -0.94347090
     18      H    -0.53281296    -0.73634683    -1.96791188
     19      H    -1.16369368    -2.09713465    -0.98163749
     20      H    -1.77119577    -0.17243415     1.58994232
     21      H    -1.31847172    -1.90420444     1.47538378
     22      H    -0.28008837    -0.78937788     2.39527095
     23      C     4.52477723     0.23584428    -0.13194887
     24      C     5.77258803    -0.21265502     0.63933036
     25      N     6.99995773     0.47532424     0.19363526
     26      C     7.05795943     1.87804520     0.67530155
     27      H     8.09778892    -1.38228840     0.41602206
     28      H     7.97775309     2.09650744     1.25977237
     29      C     8.19945515    -0.28041494     0.61930003
     30      H     4.69622043     0.09910569    -1.22961599
     31      H     4.31517489     1.30549160     0.05180721
     32      H     5.85410002    -1.30772184     0.48637391
     33      H     5.61838652    -0.05059248     1.71695317
     34      H     8.40126088    -0.15844915     1.72189205
     35      H     6.20341707     2.15830952     1.32560420
     36      H     7.03625384     2.56048952    -0.19683560
     37      H     9.06438242     0.08315046     0.01033179
 
Total System Charge             0.00000
Bonding info available!
 

Geometry at FIRE step 23:
 
--------
Geometry
--------
Formula: C10H22NO3P
Atoms
  Index Symbol   x (angstrom)   y (angstrom)   z (angstrom)
      1      O     3.41781201    -0.48275926     0.36784238
      2      P     2.19354424    -0.63183871    -0.87676146
      3      O     1.53845927     0.98352007    -0.70815266
      4      O     1.03535914    -1.39478121     0.18319840
      5      C     0.39819604     0.91481336     0.11438308
      6      C    -0.10129008    -0.57584904     0.19101164
      7      C     0.82733766     1.46837804     1.49037379
      8      C    -0.67853098     1.86718664    -0.45867480
      9      C    -1.00161907    -0.99608136    -0.99953994
     10      C    -0.90972712    -0.86972151     1.48371989
     11      H    -0.04727227     1.63610447     2.15541371
     12      H     1.53822449     0.77531354     1.98677110
     13      H     1.34009096     2.44533573     1.36037051
     14      H    -0.89416935     1.63573856    -1.52270366
     15      H    -1.62639247     1.80011804     0.12184453
     16      H    -0.32499310     2.91900370    -0.42350309
     17      H    -2.00252488    -0.51357507    -0.94395285
     18      H    -0.53224462    -0.73605712    -1.96894164
     19      H    -1.16331829    -2.09681214    -0.98241565
     20      H    -1.77041657    -0.17280596     1.58891282
     21      H    -1.31776627    -1.90416963     1.47427835
     22      H    -0.27969485    -0.78971671     2.39422613
     23      C     4.52283519     0.23670848    -0.13092451
     24      C     5.77032280    -0.21227742     0.63858653
     25      N     7.00052997     0.47479675     0.19378261
     26      C     7.05813686     1.87727861     0.67525279
     27      H     8.09780846    -1.37845719     0.41579301
     28      H     7.97832376     2.09687024     1.25995843
     29      C     8.19966561    -0.28061035     0.61949408
     30      H     4.69639676     0.09785903    -1.22858558
     31      H     4.31725476     1.30716368     0.05171975
     32      H     5.85516436    -1.30878154     0.48606719
     33      H     5.61767229    -0.05063260     1.72080994
     34      H     8.40038979    -0.15819722     1.71864968
     35      H     6.20235967     2.15776115     1.32643477
     36      H     7.03652098     2.56069481    -0.19695849
     37      H     9.06413991     0.08242253     0.01340157
 
Total System Charge             0.00000
Bonding info available!
 

Geometry at FIRE step 24:
 
--------
Geometry
--------
Formula: C10H22NO3P
Atoms
  Index Symbol   x (angstrom)   y (angstrom)   z (angstrom)
      1      O     3.41525358    -0.48261179     0.36668122
      2      P     2.19283410    -0.63259230    -0.87713368
      3      O     1.53794194     0.98277565    -0.70842655
      4      O     1.03609867    -1.39352062     0.18414382
      5      C     0.39788103     0.91404860     0.11489952
      6      C    -0.10168942    -0.57630743     0.19158777
      7      C     0.82740466     1.46810669     1.49064154
      8      C    -0.67782440     1.86685583    -0.45860063
      9      C    -1.00112669    -0.99603581    -0.99997613
     10      C    -0.91011843    -0.87034524     1.48404138
     11      H    -0.04740282     1.63554693     2.15524810
     12      H     1.53819824     0.77517653     1.98680641
     13      H     1.34023193     2.44544983     1.36083399
     14      H    -0.89380959     1.63585051    -1.52300173
     15      H    -1.62550724     1.79985588     0.12148643
     16      H    -0.32482197     2.91950494    -0.42355154
     17      H    -2.00185269    -0.51328156    -0.94448646
     18      H    -0.53159713    -0.73571970    -1.97006748
     19      H    -1.16290125    -2.09643025    -0.98329521
     20      H    -1.76956571    -0.17313543     1.58774760
     21      H    -1.31697794    -1.90417446     1.47303793
     22      H    -0.27918965    -0.79007408     2.39308264
     23      C     4.52054985     0.23780121    -0.13032151
     24      C     5.76824412    -0.21208872     0.63846868
     25      N     7.00069852     0.47409903     0.19381956
     26      C     7.05833107     1.87657822     0.67527041
     27      H     8.09779631    -1.37425968     0.41541676
     28      H     7.97899083     2.09722904     1.26005083
     29      C     8.19969850    -0.28058007     0.61955724
     30      H     4.69654168     0.09632244    -1.22720164
     31      H     4.31969798     1.30920382     0.05161986
     32      H     5.85626580    -1.30991669     0.48568608
     33      H     5.61678996    -0.05078496     1.72498454
     34      H     8.39939742    -0.15792644     1.71502330
     35      H     6.20123926     2.15699169     1.32727506
     36      H     7.03686415     2.56080193    -0.19715333
     37      H     9.06402037     0.08152981     0.01698760
 
Total System Charge             0.00000
Bonding info available!
 

Geometry at FIRE step 25:
 
--------
Geometry
--------
Formula: C10H22NO3P
Atoms
  Index Symbol   x (angstrom)   y (angstrom)   z (angstrom)
      1      O     3.41223760    -0.48236670     0.36588039
      2      P     2.19170689    -0.63324589    -0.87821632
      3      O     1.53714934     0.98162099    -0.70867192
      4      O     1.03671241    -1.39233302     0.18576119
      5      C     0.39766373     0.91329390     0.11541749
      6      C    -0.10202111    -0.57659190     0.19223975
      7      C     0.82750354     1.46784308     1.49095775
      8      C    -0.67698851     1.86658955    -0.45855493
      9      C    -1.00047132    -0.99592731    -1.00057737
     10      C    -0.91035539    -0.87104444     1.48424324
     11      H    -0.04752863     1.63489642     2.15508499
     12      H     1.53822744     0.77501710     1.98689804
     13      H     1.34043232     2.44557870     1.36141214
     14      H    -0.89331048     1.63600060    -1.52329768
     15      H    -1.62437299     1.79956748     0.12108137
     16      H    -0.32456083     2.92006236    -0.42359928
     17      H    -2.00101623    -0.51285712    -0.94510123
     18      H    -0.53082865    -0.73529527    -1.97133284
     19      H    -1.16242050    -2.09595294    -0.98434240
     20      H    -1.76861011    -0.17339760     1.58637990
     21      H    -1.31606566    -1.90426805     1.47158379
     22      H    -0.27849843    -0.79047196     2.39179967
     23      C     4.51781955     0.23917049    -0.13022832
     24      C     5.76641905    -0.21219901     0.63931878
     25      N     7.00023177     0.47321286     0.19370180
     26      C     7.05851077     1.87595226     0.67537601
     27      H     8.09773079    -1.36956572     0.41476925
     28      H     7.97980903     2.09756819     1.25998544
     29      C     8.19939560    -0.28017771     0.61936992
     30      H     4.69662181     0.09432545    -1.22530906
     31      H     4.32268730     1.31183176     0.05148925
     32      H     5.85739725    -1.31114809     0.48518590
     33      H     5.61564912    -0.05113319     1.72960520
     34      H     8.39821863    -0.15762844     1.71086252
     35      H     6.20004838     2.15586455     1.32811750
     36      H     7.03732736     2.56074291    -0.19745084
     37      H     9.06413424     0.08040909     0.02134334
 
Total System Charge             0.00000
Bonding info available!
 

Geometry at FIRE step 26:
 
--------
Geometry
--------
Formula: C10H22NO3P
Atoms
  Index Symbol   x (angstrom)   y (angstrom)   z (angstrom)
      1      O     3.40883671    -0.48186306     0.36555503
      2      P     2.19000024    -0.63378016    -0.88011009
      3      O     1.53602567     0.98005289    -0.70888739
      4      O     1.03708451    -1.39134969     0.18814558
      5      C     0.39758867     0.91264039     0.11592057
      6      C    -0.10220492    -0.57661510     0.19293492
      7      C     0.82766673     1.46761376     1.49131864
      8      C    -0.67603024     1.86648220    -0.45855279
      9      C    -0.99961520    -0.99569510    -1.00137591
     10      C    -0.91030847    -0.87175171     1.48418443
     11      H    -0.04763090     1.63414743     2.15497457
     12      H     1.53835113     0.77482039     1.98708499
     13      H     1.34070386     2.44569535     1.36214029
     14      H    -0.89263702     1.63621489    -1.52352650
     15      H    -1.62297590     1.79927017     0.12068235
     16      H    -0.32417915     2.92063965    -0.42360136
     17      H    -2.00000204    -0.51225554    -0.94578412
     18      H    -0.52995297    -0.73475223    -1.97267285
     19      H    -1.16188987    -2.09536962    -0.98556568
     20      H    -1.76759705    -0.17353656     1.58485249
     21      H    -1.31506009    -1.90453745     1.46993425
     22      H    -0.27757002    -0.79091950     2.39045170
     23      C     4.51486469     0.24066926    -0.13058825
     24      C     5.76503794    -0.21273839     0.64147931
     25      N     6.99885872     0.47228145     0.19340402
     26      C     7.05857273     1.87543639     0.67557075
     27      H     8.09758138    -1.36470811     0.41368967
     28      H     7.98077538     2.09781907     1.25966732
     29      C     8.19851711    -0.27923286     0.61874368
     30      H     4.69656773     0.09180741    -1.22291996
     31      H     4.32617579     1.31511219     0.05130015
     32      H     5.85841563    -1.31237049     0.48455134
     33      H     5.61423735    -0.05178418     1.73438210
     34      H     8.39687000    -0.15732071     1.70641448
     35      H     6.19891386     2.15428562     1.32886488
     36      H     7.03792825     2.56041745    -0.19785246
     37      H     9.06466482     0.07911785     0.02637221
 
Total System Charge             0.00000
Bonding info available!
 

Geometry at FIRE step 27:
 
--------
Geometry
--------
Formula: C10H22NO3P
Atoms
  Index Symbol   x (angstrom)   y (angstrom)   z (angstrom)
      1      O     3.40512918    -0.48080752     0.36558838
      2      P     2.18755238    -0.63431282    -0.88261990
      3      O     1.53455273     0.97822119    -0.70913273
      4      O     1.03714817    -1.39063221     0.19120113
      5      C     0.39764751     0.91217644     0.11643590
      6      C    -0.10217128    -0.57636143     0.19362338
      7      C     0.82795258     1.46742985     1.49172930
      8      C    -0.67494978     1.86664174    -0.45858897
      9      C    -0.99851485    -0.99524648    -1.00238881
     10      C    -0.90986470    -0.87237008     1.48369853
     11      H    -0.04768661     1.63326918     2.15499910
     12      H     1.53861474     0.77455129     1.98742009
     13      H     1.34105574     2.44575069     1.36308604
     14      H    -0.89174981     1.63654119    -1.52359529
     15      H    -1.62132014     1.79898334     0.12038210
     16      H    -0.32364002     2.92119755    -0.42346879
     17      H    -1.99878734    -0.51141816    -0.94653285
     18      H    -0.52898134    -0.73402816    -1.97401943
     19      H    -1.16131886    -2.09466098    -0.98700196
     20      H    -1.76657215    -0.17352142     1.58322120
     21      H    -1.31399035    -1.90510583     1.46808837
     22      H    -0.27634263    -0.79146078     2.38912276
     23      C     4.51211628     0.24199308    -0.13090574
     24      C     5.76405749    -0.21375598     0.64502538
     25      N     6.99640699     0.47161011     0.19297174
     26      C     7.05834445     1.87498544     0.67581026
     27      H     8.09730570    -1.36013174     0.41194250
     28      H     7.98186971     2.09789165     1.25899638
     29      C     8.19680155    -0.27763509     0.61746540
     30      H     4.69629319     0.08870881    -1.22017126
     31      H     4.33006103     1.31906867     0.05099471
     32      H     5.85914319    -1.31345713     0.48378010
     33      H     5.61256950    -0.05286931     1.73900646
     34      H     8.39535448    -0.15701961     1.70204261
     35      H     6.19799131     2.15217649     1.32942854
     36      H     7.03867338     2.55972755    -0.19832420
     37      H     9.06583362     0.07781384     0.03187195
 
Total System Charge             0.00000
Bonding info available!
 

Geometry at FIRE step 28:
 
--------
Geometry
--------
Formula: C10H22NO3P
Atoms
  Index Symbol   x (angstrom)   y (angstrom)   z (angstrom)
      1      O     3.40117761    -0.47882809     0.36558852
      2      P     2.18432278    -0.63511485    -0.88511201
      3      O     1.53278712     0.97647465    -0.70955551
      4      O     1.03693860    -1.39011285     0.19453371
      5      C     0.39775368     0.91196355     0.11703170
      6      C    -0.10190372    -0.57593522     0.19422354
      7      C     0.82843647     1.46726783     1.49221687
      8      C    -0.67374637     1.86714090    -0.45860973
      9      C    -0.99714613    -0.99448452    -1.00358283
     10      C    -0.90900755    -0.87280637     1.48267576
     11      H    -0.04766641     1.63220582     2.15525992
     12      H     1.53905653     0.77415988     1.98795623
     13      H     1.34149154     2.44568281     1.36433778
     14      H    -0.89061741     1.63704215    -1.52340854
     15      H    -1.61944610     1.79872696     0.12030263
     16      H    -0.32290456     2.92171176    -0.42307665
     17      H    -1.99734066    -0.51029101    -0.94736419
     18      H    -0.52791236    -0.73303415    -1.97532214
     19      H    -1.16070381    -2.09379815    -0.98871632
     20      H    -1.76555881    -0.17337564     1.58154718
     21      H    -1.31286618    -1.90608878     1.46601929
     22      H    -0.27476862    -0.79217759     2.38787725
     23      C     4.51017292     0.24275630    -0.13022826
     24      C     5.76308313    -0.21512461     0.64949999
     25      N     6.99292353     0.47160757     0.19254389
     26      C     7.05763136     1.87448286     0.67600160
     27      H     8.09684204    -1.35631588     0.40924978
     28      H     7.98302447     2.09768658     1.25788735
     29      C     8.19412800    -0.27546831     0.61541485
     30      H     4.69572110     0.08499929    -1.21732745
     31      H     4.33417641     1.32357445     0.05048062
     32      H     5.85939698    -1.31429081     0.48291096
     33      H     5.61070629    -0.05450990     1.74325695
     34      H     8.39363410    -0.15673337     1.69818124
     35      H     6.19741647     2.14953766     1.32977407
     36      H     7.03953755     2.55861706    -0.19878905
     37      H     9.06781510     0.07679540     0.03750336
 
Total System Charge             0.00000
Bonding info available!
 

Geometry at FIRE step 29:
 
--------
Geometry
--------
Formula: C10H22NO3P
Atoms
  Index Symbol   x (angstrom)   y (angstrom)   z (angstrom)
      1      O     3.39701979    -0.47567138     0.36519928
      2      P     2.18054006    -0.63643577    -0.88672541
      3      O     1.53084654     0.97522155    -0.71035570
[...]
    25     N       0.000017   0.000019  -0.000007
    26     C      -0.000185  -0.000038   0.000494
    27     H       0.000091   0.003198   0.000825
    28     H       0.002709   0.001135  -0.001842
    29     C      -0.000108  -0.000352  -0.000232
    30     H       0.000157  -0.000236  -0.000292
    31     H       0.000050  -0.000378   0.000106
    32     H      -0.000217   0.001754  -0.000643
    33     H      -0.000379   0.000875   0.001063
    34     H       0.000061   0.000293   0.002332
    35     H      -0.000355  -0.000895  -0.003677
    36     H      -0.000316   0.000214  -0.000259
    37     H       0.001001   0.000510  -0.000410
 
 Mode:   106      Frequency (cm-1):     2950.0687     Intensity (km/mol):        0.0000
 Index  Atom      ---- Displacements (x/y/z) ----
     1     O       0.000251  -0.000103  -0.000325
     2     P       0.000008   0.000031   0.000022
     3     O       0.000184  -0.000251   0.000044
     4     O       0.000069   0.000327  -0.000140
     5     C      -0.001349   0.005204   0.001057
     6     C       0.000331  -0.001965   0.000789
     7     C       0.037539  -0.079226   0.007410
     8     C      -0.017612  -0.029345  -0.032540
     9     C      -0.001732   0.014135  -0.001634
    10     C      -0.006134   0.020909   0.000806
    11     H      -0.233167   0.073701   0.200778
    12     H      -0.396782   0.514337  -0.249416
    13     H       0.199240   0.313866  -0.027011
    14     H       0.087133   0.040022   0.306017
    15     H      -0.017422   0.005927   0.020005
    16     H       0.128713   0.285779   0.032173
    17     H       0.060542  -0.038779  -0.003457
    18     H      -0.015950  -0.012905   0.029965
    19     H      -0.024539  -0.108187  -0.007548
    20     H       0.111939  -0.112036  -0.020334
    21     H      -0.056742  -0.121263  -0.010494
    22     H       0.017697  -0.003779   0.022033
    23     C       0.000087  -0.000397  -0.000039
    24     C      -0.000000   0.000022  -0.000008
    25     N       0.000004   0.000004   0.000003
    26     C      -0.000037   0.000015  -0.000146
    27     H       0.000024   0.000428   0.000088
    28     H      -0.000298  -0.000130   0.000228
    29     C      -0.000073  -0.000069   0.000072
    30     H      -0.000821   0.001401   0.001821
    31     H      -0.000557   0.002914  -0.000963
    32     H      -0.000034  -0.000138   0.000019
    33     H       0.000001  -0.000012   0.000056
    34     H       0.000004  -0.000044  -0.000553
    35     H       0.000129   0.000286   0.001166
    36     H       0.000576  -0.000331   0.000290
    37     H       0.000797   0.000369  -0.000381
 
 Mode:   107      Frequency (cm-1):     2951.9953     Intensity (km/mol):        0.0000
 Index  Atom      ---- Displacements (x/y/z) ----
     1     O       0.000287  -0.000586  -0.000440
     2     P      -0.000078   0.000027   0.000034
     3     O      -0.000013  -0.000017  -0.000002
     4     O       0.000002   0.000002  -0.000008
     5     C       0.000002   0.000017   0.000002
     6     C       0.000005  -0.000007   0.000000
     7     C       0.000119  -0.000194   0.000007
     8     C      -0.000148  -0.000139  -0.000015
     9     C      -0.000032  -0.000080   0.000043
    10     C      -0.000096   0.000228  -0.000004
    11     H      -0.000739   0.000215   0.000640
    12     H      -0.001046   0.001334  -0.000634
    13     H       0.000400   0.000648  -0.000052
    14     H       0.000185   0.000100   0.000561
    15     H       0.000844   0.000071  -0.000566
    16     H       0.000665   0.001434   0.000145
    17     H      -0.000084   0.000079  -0.000001
    18     H       0.000296   0.000188  -0.000534
    19     H       0.000166   0.000693   0.000034
    20     H       0.001357  -0.001362  -0.000245
    21     H      -0.000562  -0.001221  -0.000114
    22     H       0.000304  -0.000062   0.000393
    23     C      -0.013411   0.037521   0.013292
    24     C      -0.000883   0.007215  -0.003782
    25     N      -0.004504  -0.003061   0.001464
    26     C       0.049369  -0.005518   0.021680
    27     H      -0.014170  -0.227128  -0.045081
    28     H      -0.181256  -0.072009   0.108194
    29     C       0.046506   0.039650  -0.048027
    30     H       0.097294  -0.175161  -0.227952
    31     H       0.056508  -0.254914   0.082695
    32     H       0.006943  -0.077971   0.033882
    33     H      -0.002648  -0.009673  -0.009672
    34     H      -0.002156   0.029009   0.359708
    35     H      -0.029805  -0.049521  -0.200750
    36     H      -0.338135   0.181915  -0.155735
    37     H      -0.503348  -0.232410   0.240937
 
 Mode:   108      Frequency (cm-1):     2953.1306     Intensity (km/mol):        0.0000
 Index  Atom      ---- Displacements (x/y/z) ----
     1     O       0.000039  -0.000026  -0.000050
     2     P      -0.000013   0.000004  -0.000002
     3     O      -0.000091   0.000954  -0.000490
     4     O      -0.000292  -0.000750   0.000723
     5     C      -0.002589  -0.001421   0.002753
     6     C      -0.001708   0.003380  -0.000798
     7     C       0.017916  -0.006449  -0.005676
     8     C       0.043512   0.018140  -0.053603
     9     C       0.010400  -0.009573  -0.005285
    10     C       0.040988  -0.054532   0.013144
    11     H      -0.109727   0.029398   0.097321
    12     H      -0.062588   0.078344  -0.037174
    13     H      -0.027918  -0.033993   0.004485
    14     H       0.070973   0.029078   0.295904
    15     H      -0.466630  -0.025373   0.330466
    16     H      -0.105084  -0.215781  -0.011122
    17     H      -0.100187   0.060108   0.007292
    18     H      -0.026795  -0.012947   0.045831
    19     H       0.011322   0.059189   0.004976
    20     H      -0.392725   0.390644   0.066364
    21     H       0.095880   0.220240   0.016434
    22     H      -0.172696   0.018834  -0.234718
    23     C      -0.000140   0.000391   0.000123
    24     C      -0.000098   0.000335   0.000105
    25     N       0.000017  -0.000027  -0.000020
    26     C      -0.000233  -0.000022   0.000484
    27     H      -0.000035  -0.001584  -0.000410
    28     H       0.002795   0.001150  -0.001889
    29     C       0.000027   0.000167   0.000135
    30     H       0.000937  -0.001770  -0.002313
    31     H       0.000628  -0.002801   0.000930
    32     H       0.000367  -0.002219   0.000825
    33     H       0.000722  -0.001490  -0.002046
    34     H      -0.000021  -0.000154  -0.001256
    35     H      -0.000329  -0.000890  -0.003576
    36     H       0.000116  -0.000037  -0.000058
    37     H      -0.000206  -0.000132   0.000071
 
 Mode:   109      Frequency (cm-1):     2953.2471     Intensity (km/mol):        0.0000
 Index  Atom      ---- Displacements (x/y/z) ----
     1     O       0.000204  -0.000720  -0.000218
     2     P      -0.000047   0.000045   0.000023
     3     O      -0.000017  -0.000028   0.000001
     4     O       0.000004   0.000005  -0.000005
     5     C       0.000024   0.000028  -0.000028
     6     C       0.000011  -0.000025   0.000008
     7     C      -0.000117  -0.000224   0.000114
     8     C      -0.000383  -0.000178   0.000434
     9     C      -0.000065   0.000127   0.000019
    10     C      -0.000263   0.000353  -0.000085
    11     H       0.000715  -0.000134  -0.000649
    12     H      -0.000661   0.000919  -0.000442
    13     H       0.001251   0.001807  -0.000183
    14     H      -0.000551  -0.000227  -0.002345
    15     H       0.003951   0.000215  -0.002797
    16     H       0.000993   0.002059   0.000106
    17     H       0.000863  -0.000530  -0.000058
    18     H       0.000058   0.000001  -0.000077
    19     H      -0.000191  -0.000903  -0.000064
    20     H       0.002529  -0.002522  -0.000422
    21     H      -0.000623  -0.001425  -0.000105
    22     H       0.001116  -0.000111   0.001511
    23     C      -0.014112   0.041700   0.011387
    24     C      -0.009208   0.030823   0.011768
    25     N       0.002083  -0.002232  -0.003611
    26     C      -0.026840  -0.003143   0.061456
    27     H      -0.002175  -0.220127  -0.063355
    28     H       0.342878   0.141591  -0.232384
    29     C      -0.012696   0.017423   0.047782
    30     H       0.096709  -0.181095  -0.236216
    31     H       0.066056  -0.301710   0.100233
    32     H       0.036352  -0.197614   0.073564
    33     H       0.072558  -0.145885  -0.202787
    34     H      -0.005182  -0.043536  -0.411263
    35     H      -0.042193  -0.113742  -0.455836
    36     H      -0.001643   0.004197  -0.014804
    37     H       0.154546   0.065673  -0.080548
 
 Mode:   110      Frequency (cm-1):     2954.2165     Intensity (km/mol):        0.0000
 Index  Atom      ---- Displacements (x/y/z) ----
     1     O      -0.000070  -0.000151  -0.000035
     2     P       0.000010   0.000014   0.000004
     3     O      -0.000007  -0.000007   0.000001
     4     O       0.000000   0.000001   0.000000
     5     C       0.000009   0.000007  -0.000010
     6     C       0.000002  -0.000007   0.000003
     7     C      -0.000076  -0.000050   0.000044
     8     C      -0.000102  -0.000039   0.000136
     9     C      -0.000005   0.000045  -0.000006
    10     C      -0.000059   0.000080  -0.000020
    11     H       0.000456  -0.000102  -0.000409
    12     H      -0.000020   0.000072  -0.000035
    13     H       0.000449   0.000622  -0.000065
    14     H      -0.000191  -0.000082  -0.000789
    15     H       0.001130   0.000058  -0.000804
    16     H       0.000233   0.000473   0.000016
    17     H       0.000179  -0.000117  -0.000011
    18     H      -0.000055  -0.000042   0.000103
    19     H      -0.000080  -0.000355  -0.000020
    20     H       0.000573  -0.000571  -0.000095
    21     H      -0.000143  -0.000324  -0.000019
    22     H       0.000258  -0.000023   0.000349
    23     C      -0.002585   0.008467   0.001447
    24     C      -0.016405   0.055004   0.015230
    25     N       0.004793  -0.002460   0.001867
    26     C      -0.059535   0.006849  -0.015520
    27     H       0.003150   0.245064   0.071287
    28     H       0.242004   0.095214  -0.147506
    29     C       0.012308  -0.020291  -0.054008
    30     H       0.013640  -0.035962  -0.050779
    31     H       0.019024  -0.076491   0.029250
    32     H       0.055675  -0.367242   0.130861
    33     H       0.115328  -0.231735  -0.309353
    34     H       0.007877   0.048771   0.466091
    35     H       0.026432   0.038097   0.155464
    36     H       0.388731  -0.209231   0.177681
    37     H      -0.149156  -0.065979   0.080785
 
 Mode:   111      Frequency (cm-1):     2956.7719     Intensity (km/mol):        0.0000
 Index  Atom      ---- Displacements (x/y/z) ----
     1     O       0.000411  -0.001263  -0.000386
     2     P      -0.000087   0.000085   0.000045
     3     O      -0.000023  -0.000034  -0.000004
     4     O       0.000002  -0.000000  -0.000001
     5     C       0.000002   0.000016  -0.000006
     6     C       0.000001  -0.000001   0.000002
     7     C       0.000064  -0.000244   0.000047
     8     C      -0.000041  -0.000037   0.000010
     9     C       0.000005   0.000033  -0.000011
    10     C       0.000005  -0.000016  -0.000001
    11     H      -0.000369   0.000143   0.000306
    12     H      -0.001161   0.001501  -0.000717
    13     H       0.000766   0.001181  -0.000124
    14     H       0.000013   0.000006   0.000007
    15     H       0.000280   0.000019  -0.000198
    16     H       0.000172   0.000370   0.000022
    17     H       0.000084  -0.000060  -0.000004
    18     H      -0.000077  -0.000056   0.000146
    19     H      -0.000064  -0.000275  -0.000013
    20     H      -0.000085   0.000086   0.000017
    21     H       0.000045   0.000101   0.000014
    22     H      -0.000010   0.000012  -0.000014
    23     C      -0.024684   0.073643   0.020523
    24     C       0.012411  -0.043020  -0.011826
    25     N       0.000667   0.003306   0.001379
    26     C      -0.014055   0.005044  -0.039700
    27     H       0.006376   0.170449   0.041084
    28     H      -0.061847  -0.027030   0.049447
    29     C      -0.013749  -0.022256   0.001200
    30     H       0.175398  -0.309144  -0.394431
    31     H       0.101773  -0.519976   0.162354
    32     H      -0.031511   0.278542  -0.092041
    33     H      -0.094091   0.173523   0.223532
    34     H       0.002509   0.004711   0.011453
    35     H       0.034340   0.076363   0.308113
    36     H       0.193367  -0.100948   0.094813
    37     H       0.138082   0.065774  -0.063750

PES point character: Geometry corresponds to a local minimum on the PES.




 ============================
 Statistical Thermal Analysis  ***  ideal gas assumed  ***
 ============================
  
 Pressure:                  1.000000 atm.
 Temperature:             298.150000 K



 Moments of Inertia [amu*bohr^2] and principal axis
 ==================================================

        1473.1572       7654.4448       8048.0676
 ------------------------------------------------
          -0.9946          0.0940          0.0437
          -0.0824         -0.9726          0.2174
          -0.0629         -0.2127         -0.9751


 The rotational contribution to the molecular entropy includes
 a term, dependent on the symmetry number sigma. The results 
 reported below were computed using sigma = 1, determined from
 the point group symmetry of the input geometry (NOSYM). 
 If this is not the correct symmetry, try symmetrizing the molecule before
 running the calculation (note: linear molecules should be aligned along one
 of the Cartesian axes).
 Contributions from frequencies below 20 1/cm are not included in vibrational sums.
 Their contributions, if any, are reported separately.


     Temp                                                        Transl      Rotat     Vibrat     Total
     ----                                                        ------      -----     ------     -----

     298.15   Entropy (cal/mol-K):                               42.267     32.873     47.847    122.986
              Nuclear Internal Energy (kcal/mol):                 0.889      0.889    223.017    224.795
              Constant Volume Heat Capacity (cal/mol-K):          2.981      2.981     50.725     56.687
          (c) Constant Volume Heat Capacity (cal/mol-K):          2.981      2.981     46.935     52.897

       Summary of energy terms
                                                   hartree              eV         kcal/mol           kJ/mol
                                      --------------------     -----------       ----------      -----------
      Energy from Engine:                0.044325665400799          1.2062            27.81           116.38
      Nuclear Internal Energy:           0.358233154724996          9.7480           224.79           940.54
  (c) Nuclear Internal Energy:           0.356303884058556          9.6955           223.58           935.48
      Internal Energy U:                 0.402558820125795         10.9542           252.61          1056.92
      pV/n = RT:                         0.000944186013486          0.0257             0.59             2.48
      Enthalpy H:                        0.403503006139281         10.9799           253.20          1059.40
      -T*S:                             -0.058434661295815         -1.5901           -36.67          -153.42
  (c) -T*S:                             -0.056175885671329         -1.5286           -35.25          -147.49
      Gibbs free energy:                 0.345068344843466          9.3898           216.53           905.98
 
 
 
  (c) The properties marked with this symbol have been corrected using 'low vibrational frequency free rotor
      interpolation corrections'. For those terms all positive frequencies are used (also ones below 20 1/cm),
      but the contribution to the partition function of small vibrational frequencies is modified as described
      in the following paper:
      S. Grimme, 'Supramolecular Binding Thermodynamics by Dispersion-Corrected Density Functional Theory'
      (Chem. Eur. J. 2012, 18, 9955-9964)
      Configuration: Dampener Frequency          :   100.000 1/cm
                     Dampener Alpha              :     4.000
                     Averaging Moment of Inertia : 1.000E-44 kg m2
-----------
Bond orders
-----------

Description: Unknown
Only bonds with bond orders > 0.200 are printed.

 Index  Atom    Index  Atom    BondOrder
     1     O        2     P        1.000
     1     O       23     C        1.000
     2     P        3     O        1.000
     2     P        4     O        1.000
     3     O        5     C        1.000
     4     O        6     C        1.000
     5     C        6     C        1.000
     5     C        7     C        1.000
     5     C        8     C        1.000
     6     C        9     C        1.000
     6     C       10     C        1.000
     7     C       11     H        1.000
     7     C       12     H        1.000
     7     C       13     H        1.000
     8     C       14     H        1.000
     8     C       15     H        1.000
     8     C       16     H        1.000
     9     C       17     H        1.000
     9     C       18     H        1.000
     9     C       19     H        1.000
    10     C       20     H        1.000
    10     C       21     H        1.000
    10     C       22     H        1.000
    23     C       24     C        1.000
    23     C       30     H        1.000
    23     C       31     H        1.000
    24     C       25     N        1.000
    24     C       32     H        1.000
    24     C       33     H        1.000
    25     N       26     C        1.000
    25     N       29     C        1.000
    26     C       28     H        1.000
    26     C       35     H        1.000
    26     C       36     H        1.000
    27     H       29     C        1.000
    29     C       34     H        1.000
    29     C       37     H        1.000


--------------
Atomic charges
--------------
  Index   Atom    Charge
      1      O    0.0000
      2      P    0.0000
      3      O    0.0000
      4      O    0.0000
      5      C    0.0000
      6      C    0.0000
      7      C    0.0000
      8      C    0.0000
      9      C    0.0000
     10      C    0.0000
     11      H    0.0000
     12      H    0.0000
     13      H    0.0000
     14      H    0.0000
     15      H    0.0000
     16      H    0.0000
     17      H    0.0000
     18      H    0.0000
     19      H    0.0000
     20      H    0.0000
     21      H    0.0000
     22      H    0.0000
     23      C    0.0000
     24      C    0.0000
     25      N    0.0000
     26      C    0.0000
     27      H    0.0000
     28      H    0.0000
     29      C    0.0000
     30      H    0.0000
     31      H    0.0000
     32      H    0.0000
     33      H    0.0000
     34      H    0.0000
     35      H    0.0000
     36      H    0.0000
     37      H    0.0000


Dipole moment vector    (Debye):     0.00000000    0.00000000    0.00000000
              magnitude (Debye):     0.00000000

 
--------------------
Energy Decomposition
--------------------
Total Energy (hartree)                 0.04432567
Total Energy (eV)                      1.20616273
Bond bending (hartree)                 0.01155638
Bond stretching (hartree)              0.00592074
Bond torsion (hartree)                 0.00331366
Bond inversion (hartree)               0.00019838
Van Der Waals (hartree)                0.02333650
Coulomb (hartree)                      0.00000000
Embedding (hartree)                    0.00000000
Total Bonded (hartree)                 0.02098917
Total NonBonded (hartree)              0.02333650
 

Final PES point is a local minimum. Geometry optimization successful!


AMS application finished. Exiting.
NORMAL TERMINATION
     Total cpu time:       0.62
  Total system time:       0.06
 Total elapsed time:       0.82
