 *******************************************************************************
 ** Site#: 30659        For non-commercial use only    Version 20.191L 64BITS **
 *******************************************************************************
 ** Cite this program as: MOPAC2016, Version: 20.191L, James J. P. Stewart,   **
 ** Stewart Computational Chemistry, web: HTTP://OpenMOPAC.net. Days left: 350**
 *******************************************************************************
 **                                                                           **
 **                                MOPAC2016                                  **
 **                                                                           **
 *******************************************************************************

                              PM7 CALCULATION RESULTS

 *******************************************************************************
 *  CALCULATION DONE:                                Sat Jul 25 14:55:17 2020  *
 *  PM7        - The PM7 Hamiltonian to be used
 *  SYMMETRY   - SYMMETRY CONDITIONS TO BE IMPOSED
 *  MERS=N     - NUMBER OF FUNDAMENTAL UNIT CELLS USED: 64
 *  T=         - A TIME OF 172800.0 SECONDS REQUESTED
 *  DUMP=N     - RESTART FILE WRITTEN EVERY 7200.0 SECONDS REQUESTED
 *  BCC        - THE SYSTEM IS BODY-CENTERED CUBIC
 *******************************************************************************



                    PARAMETER DEPENDENCE DATA

        REFERENCE ATOM      FUNCTION NO.    DEPENDENT ATOM(S)
            1                  2               2   31   32   43   44   55   56

            1                  3               2    3    4   21   22   23   24
                                              41   42   43
            1                  3              44   61   62   63   64   65
            3                  1               5    9   17   21   33
            3                  2               4
            4                  1               6   10   18   22   34
            5                  2               6   17   18   47   48   59   60

            5                  3               6    7    8   25   26   27   28
                                              45   46   47
            5                  3              48
            7                  1              11   13   19   23   25   29   35
                                              37   41   49
            7                  1              53   65   66   67
            7                  2               8   19   20
            8                  1              12   14   20   24   26   30   36
                                              38   42   50
            8                  1              54
            9                  2              10   21   22   33   34   63   64

            9                  3              10   11   12   29   30   31   32

           11                  2              12   23   24   35   36
           13                  2              14   25   26   37   38   49   50

           13                  3              14   15   16
           15                  1              27   31   39   43   45   51   55
                                              57   61
           15                  2              16   27   28   39   40   51   52

           16                  1              28   32   40   44   46   52   56
                                              58   62
           17                  3              18   19   20   37   38   39   40
                                              57   58   59
           17                  3              60
           29                  2              30   41   42   53   54   66   67

           33                  3              34   35   36   53   54   55   56

           45                  2              46   57   58
           47                  1              59   63
           48                  1              60   64
           49                  3              50   51   52
           61                  2              62

             DESCRIPTIONS OF THE FUNCTIONS USED
   1      X COORDINATE IS SET EQUAL TO   THE REFERENCE X COORDINATE  
   2      Y COORDINATE IS SET EQUAL TO   THE REFERENCE Y COORDINATE  
   3      Z COORDINATE IS SET EQUAL TO   THE REFERENCE Z COORDINATE  
 
 MERS=(4,4,4)   BCC SYMMETRY PM7
 Diamond

   ATOM   CHEMICAL          X               Y               Z
  NUMBER   SYMBOL      (ANGSTROMS)     (ANGSTROMS)     (ANGSTROMS)
 
     1       C          0.00000000  *   0.00000000  *   0.00000000  *
     2       C         -1.54497866  *   0.00000000      0.00000000   
     3       C          2.05998578  *   2.91325979  *   0.00000000   
     4       C          0.51500711  *   2.91325979      0.00000000   
     5       C          2.05998578      0.72831495  *  -1.26147849  *
     6       C          0.51500711      0.72831495     -1.26147849   
     7       C          4.11997155  *   3.64157474  *  -1.26147849   
     8       C          2.57499289  *   3.64157474     -1.26147849   
     9       C          2.05998578     -1.45662989  *  -2.52295699  *
    10       C          0.51500711     -1.45662989     -2.52295699   
    11       C          4.11997155      1.45662989  *  -2.52295699   
    12       C          2.57499289      1.45662989     -2.52295699   
    13       C          4.11997155     -0.72831495  *  -3.78443548  *
    14       C          2.57499289     -0.72831495     -3.78443548   
    15       C          6.17995733  *   2.18494484  *  -3.78443548   
    16       C          4.63497866  *   2.18494484     -3.78443548   
    17       C          2.05998578      0.72831495      1.26147849  *
    18       C          0.51500711      0.72831495      1.26147849   
    19       C          4.11997155      3.64157474      1.26147849   
    20       C          2.57499289      3.64157474      1.26147849   
    21       C          2.05998578     -1.45662989      0.00000000   
    22       C          0.51500711     -1.45662989      0.00000000   
    23       C          4.11997155      1.45662989      0.00000000   
    24       C          2.57499289      1.45662989      0.00000000   
    25       C          4.11997155     -0.72831495     -1.26147849   
    26       C          2.57499289     -0.72831495     -1.26147849   
    27       C          6.17995733      2.18494484     -1.26147849   
    28       C          4.63497866      2.18494484     -1.26147849   
    29       C          4.11997155     -2.91325979  *  -2.52295699   
    30       C          2.57499289     -2.91325979     -2.52295699   
    31       C          6.17995733      0.00000000     -2.52295699   
    32       C          4.63497866      0.00000000     -2.52295699   
    33       C          2.05998578     -1.45662989      2.52295699  *
    34       C          0.51500711     -1.45662989      2.52295699   
    35       C          4.11997155      1.45662989      2.52295699   
    36       C          2.57499289      1.45662989      2.52295699   
    37       C          4.11997155     -0.72831495      1.26147849   
    38       C          2.57499289     -0.72831495      1.26147849   
    39       C          6.17995733      2.18494484      1.26147849   
    40       C          4.63497866      2.18494484      1.26147849   
    41       C          4.11997155     -2.91325979      0.00000000   
    42       C          2.57499289     -2.91325979      0.00000000   
    43       C          6.17995733      0.00000000      0.00000000   
    44       C          4.63497866      0.00000000      0.00000000   
    45       C          6.17995733     -2.18494484  *  -1.26147849   
    46       C          4.63497866     -2.18494484     -1.26147849   
    47       C          8.23994311  *   0.72831495     -1.26147849   
    48       C          6.69496444  *   0.72831495     -1.26147849   
    49       C          4.11997155     -0.72831495      3.78443548  *
    50       C          2.57499289     -0.72831495      3.78443548   
    51       C          6.17995733      2.18494484      3.78443548   
    52       C          4.63497866      2.18494484      3.78443548   
    53       C          4.11997155     -2.91325979      2.52295699   
    54       C          2.57499289     -2.91325979      2.52295699   
    55       C          6.17995733      0.00000000      2.52295699   
    56       C          4.63497866      0.00000000      2.52295699   
    57       C          6.17995733     -2.18494484      1.26147849   
    58       C          4.63497866     -2.18494484      1.26147849   
    59       C          8.23994311      0.72831495      1.26147849   
    60       C          6.69496444      0.72831495      1.26147849   
    61       C          6.17995733     -4.36988968  *   0.00000000   
    62       C          4.63497866     -4.36988968      0.00000000   
    63       C          8.23994311     -1.45662989      0.00000000   
    64       C          6.69496444     -1.45662989      0.00000000   
    65      Tv          4.11997155      5.82651958  *   0.00000000   
    66      Tv          4.11997155     -2.91325979     -5.04591397  *
    67      Tv          4.11997155     -2.91325979      5.04591397  *
 

                   THE SYSTEM IS A SOLID


                UNIT CELL TRANSLATION VECTORS

              X                Y              Z
    T1 =     4.1199715      5.8265196      0.0000000
    T2 =     4.1199715     -2.9132598     -5.0459140
    T3 =     4.1199715     -2.9132598      5.0459140


          CARTESIAN COORDINATES 

    NO.       ATOM           X           Y           Z

     1         C          0.0000      0.0000      0.0000
     2         C         -1.5450      0.0000      0.0000
     3         C          2.0600      2.9133      0.0000
     4         C          0.5150      2.9133      0.0000
     5         C          2.0600      0.7283     -1.2615
     6         C          0.5150      0.7283     -1.2615
     7         C          4.1200      3.6416     -1.2615
     8         C          2.5750      3.6416     -1.2615
     9         C          2.0600     -1.4566     -2.5230
    10         C          0.5150     -1.4566     -2.5230
    11         C          4.1200      1.4566     -2.5230
    12         C          2.5750      1.4566     -2.5230
    13         C          4.1200     -0.7283     -3.7844
    14         C          2.5750     -0.7283     -3.7844
    15         C          6.1800      2.1849     -3.7844
    16         C          4.6350      2.1849     -3.7844
    17         C          2.0600      0.7283      1.2615
    18         C          0.5150      0.7283      1.2615
    19         C          4.1200      3.6416      1.2615
    20         C          2.5750      3.6416      1.2615
    21         C          2.0600     -1.4566      0.0000
    22         C          0.5150     -1.4566      0.0000
    23         C          4.1200      1.4566      0.0000
    24         C          2.5750      1.4566      0.0000
    25         C          4.1200     -0.7283     -1.2615
    26         C          2.5750     -0.7283     -1.2615
    27         C          6.1800      2.1849     -1.2615
    28         C          4.6350      2.1849     -1.2615
    29         C          4.1200     -2.9133     -2.5230
    30         C          2.5750     -2.9133     -2.5230
    31         C          6.1800      0.0000     -2.5230
    32         C          4.6350      0.0000     -2.5230
    33         C          2.0600     -1.4566      2.5230
    34         C          0.5150     -1.4566      2.5230
    35         C          4.1200      1.4566      2.5230
    36         C          2.5750      1.4566      2.5230
    37         C          4.1200     -0.7283      1.2615
    38         C          2.5750     -0.7283      1.2615
    39         C          6.1800      2.1849      1.2615
    40         C          4.6350      2.1849      1.2615
    41         C          4.1200     -2.9133      0.0000
    42         C          2.5750     -2.9133      0.0000
    43         C          6.1800      0.0000      0.0000
    44         C          4.6350      0.0000      0.0000
    45         C          6.1800     -2.1849     -1.2615
    46         C          4.6350     -2.1849     -1.2615
    47         C          8.2399      0.7283     -1.2615
    48         C          6.6950      0.7283     -1.2615
    49         C          4.1200     -0.7283      3.7844
    50         C          2.5750     -0.7283      3.7844
    51         C          6.1800      2.1849      3.7844
    52         C          4.6350      2.1849      3.7844
    53         C          4.1200     -2.9133      2.5230
    54         C          2.5750     -2.9133      2.5230
    55         C          6.1800      0.0000      2.5230
    56         C          4.6350      0.0000      2.5230
    57         C          6.1800     -2.1849      1.2615
    58         C          4.6350     -2.1849      1.2615
    59         C          8.2399      0.7283      1.2615
    60         C          6.6950      0.7283      1.2615
    61         C          6.1800     -4.3699      0.0000
    62         C          4.6350     -4.3699      0.0000
    63         C          8.2399     -1.4566      0.0000
    64         C          6.6950     -1.4566      0.0000

 General Reference for PM7:
 "Optimization of Parameters for Semiempirical Methods VI: More Modifications to the 
 NDDO Approximations and Re-optimization of Parameters", J. J. P. Stewart, J. Mol. Mod., 1:32, 19 (2013)
 https://link.springer.com/article/10.1007/s00894-012-1667-x

           Empirical Formula: C64  =    64 atoms



      RHF CALCULATION, NO. OF DOUBLY OCCUPIED LEVELS = 128


          Geometry optimization using EF

          DIAGONAL MATRIX USED AS START HESSIAN

   1 a, b, c, alpha, beta, gamma:  3.569  3.569  3.569  90.00  89.99  90.01 Vol:    5.68 Density: 3.510 HoF:     3.917 Grad:   4.55
 CYCLE:     1 TIME:  13.047 TIME LEFT:  2.00D  GRAD.:    36.425 HEAT:  250.7193
   2 a, b, c, alpha, beta, gamma:  3.569  3.570  3.570  90.01  89.99  89.99 Vol:    5.69 Density: 3.508 HoF:     3.917 Grad:   4.85
 CYCLE:     2 TIME:  32.121 TIME LEFT:  2.00D  GRAD.:    38.765 HEAT:  250.6607
   3 a, b, c, alpha, beta, gamma:  3.570  3.571  3.570  90.01  89.98  89.99 Vol:    5.69 Density: 3.506 HoF:     3.916 Grad:   3.38
 CYCLE:     3 TIME:  12.832 TIME LEFT:  2.00D  GRAD.:    27.007 HEAT:  250.6319
   4 a, b, c, alpha, beta, gamma:  3.570  3.571  3.570  90.01  89.98  90.00 Vol:    5.69 Density: 3.506 HoF:     3.916 Grad:   4.27
 CYCLE:     4 TIME:   6.500 TIME LEFT:  2.00D  GRAD.:    34.124 HEAT:  250.6144
   5 a, b, c, alpha, beta, gamma:  3.570  3.571  3.571  90.02  89.99  90.00 Vol:    5.69 Density: 3.505 HoF:     3.916 Grad:   4.05
 CYCLE:     5 TIME:   6.379 TIME LEFT:  2.00D  GRAD.:    32.418 HEAT:  250.5922
   6 a, b, c, alpha, beta, gamma:  3.570  3.571  3.571  90.02  89.99  90.00 Vol:    5.69 Density: 3.504 HoF:     3.915 Grad:   1.64
 CYCLE:     6 TIME:  12.664 TIME LEFT:  2.00D  GRAD.:    13.085 HEAT:  250.5826
   7 a, b, c, alpha, beta, gamma:  3.571  3.571  3.571  90.02  89.99  90.00 Vol:    5.69 Density: 3.503 HoF:     3.915 Grad:   1.12
 CYCLE:     7 TIME:  12.703 TIME LEFT:  2.00D  GRAD.:     8.949 HEAT:  250.5788
   8 a, b, c, alpha, beta, gamma:  3.571  3.572  3.571  90.02  89.99  90.00 Vol:    5.69 Density: 3.503 HoF:     3.915 Grad:   0.98
 CYCLE:     8 TIME:   6.488 TIME LEFT:  2.00D  GRAD.:     7.829 HEAT:  250.5755
   9 a, b, c, alpha, beta, gamma:  3.571  3.572  3.572  90.02  89.99  90.00 Vol:    5.69 Density: 3.503 HoF:     3.915 Grad:   0.82
 CYCLE:     9 TIME:   6.469 TIME LEFT:  2.00D  GRAD.:     6.582 HEAT:  250.5743
  10 a, b, c, alpha, beta, gamma:  3.571  3.572  3.572  90.02  89.99  90.00 Vol:    5.69 Density: 3.502 HoF:     3.915 Grad:   0.79
 CYCLE:    10 TIME:   6.371 TIME LEFT:  2.00D  GRAD.:     6.281 HEAT:  250.5736
  11 a, b, c, alpha, beta, gamma:  3.571  3.572  3.572  90.02  89.99  90.00 Vol:    5.70 Density: 3.502 HoF:     3.915 Grad:   0.69
 CYCLE:    11 TIME:   6.504 TIME LEFT:  2.00D  GRAD.:     5.532 HEAT:  250.5735
  12 a, b, c, alpha, beta, gamma:  3.571  3.572  3.572  90.02  89.99  90.00 Vol:    5.70 Density: 3.501 HoF:     3.915 Grad:   0.57
 CYCLE:    12 TIME:   6.453 TIME LEFT:  2.00D  GRAD.:     4.530 HEAT:  250.5739

     GRADIENT =  4.53006 IS LESS THAN CUTOFF =  5.00000



 -------------------------------------------------------------------------------
 MERS=(4,4,4)   BCC SYMMETRY PM7
 Diamond



     GEOMETRY OPTIMISED USING EIGENVECTOR FOLLOWING (EF).     
     SCF FIELD WAS ACHIEVED                                   


                              PM7 CALCULATION
                                                       MOPAC2016 (Version: 20.191L)
                                                       Sat Jul 25 14:57:28 2020
                                                       No. of days remaining = 350




          FINAL HEAT OF FORMATION =        250.57383 KCAL/MOL =    1048.40092 KJ/MOL
          H.o.F. per unit cell    =          3.91522 KCAL, for  64 unit cells


          TOTAL ENERGY            =      -7865.44373 EV
          ELECTRONIC ENERGY       =  -45722408.04666 EV
          CORE-CORE REPULSION     =   45714542.60293 EV

          GRADIENT NORM           =          4.53006 = 0.56626 PER ATOM
          IONIZATION POTENTIAL    =          9.882310 EV
          HOMO LUMO ENERGIES (EV) =         -9.882 -0.048
          NO. OF FILLED LEVELS    =        128
          MOLECULAR WEIGHT        =        768.7040

          VOLUME OF UNIT CELL     =          5.696 CUBIC ANGSTROMS

          DENSITY                 =          3.501 GRAMS/CC
                              A   =          3.571 ANGSTROMS
                              B   =          3.572 ANGSTROMS
                              C   =          3.572 ANGSTROMS
                            ALPHA =         90.019 DEGREES
                            BETA  =         89.993 DEGREES
                            GAMMA =         90.002 DEGREES

          VOLUME OF CLUSTER       =        364.54821 ANGSTROMS**3 =  219.536 CM**3/MOLE
 


          SCF CALCULATIONS        =         21
 
          WALL-CLOCK TIME         =  2 MINUTES AND 10.816 SECONDS
          COMPUTATION TIME        =  5 MINUTES AND  0.739 SECONDS



       FINAL  POINT  AND  DERIVATIVES

   PARAMETER     ATOM    TYPE            VALUE        GRADIENT
      1          1  C    CARTESIAN X    -0.000407     -0.029084  KCAL/ANGSTROM
      2          1  C    CARTESIAN Y    -0.000127     -0.031002  KCAL/ANGSTROM
      3          1  C    CARTESIAN Z     0.000790     -0.365706  KCAL/ANGSTROM
      4          2  C    CARTESIAN X    -1.546843      0.200986  KCAL/ANGSTROM
      5          3  C    CARTESIAN X     2.061710     -0.836642  KCAL/ANGSTROM
      6          3  C    CARTESIAN Y     2.915248     -1.026778  KCAL/ANGSTROM
      7          4  C    CARTESIAN X     0.515175     -0.083374  KCAL/ANGSTROM
      8          5  C    CARTESIAN Y     0.728832     -0.201528  KCAL/ANGSTROM
      9          5  C    CARTESIAN Z    -1.262006      0.208980  KCAL/ANGSTROM
     10          7  C    CARTESIAN X     4.124027     -0.803443  KCAL/ANGSTROM
     11          7  C    CARTESIAN Y     3.644382     -1.179459  KCAL/ANGSTROM
     12          8  C    CARTESIAN X     2.577321     -0.338382  KCAL/ANGSTROM
     13          9  C    CARTESIAN Y    -1.458075      0.291911  KCAL/ANGSTROM
     14          9  C    CARTESIAN Z    -2.525261      0.804394  KCAL/ANGSTROM
     15         11  C    CARTESIAN Y     1.457666     -0.455023  KCAL/ANGSTROM
     16         13  C    CARTESIAN Y    -0.728980      0.229257  KCAL/ANGSTROM
     17         13  C    CARTESIAN Z    -3.788052      1.149053  KCAL/ANGSTROM
     18         15  C    CARTESIAN X     6.185724     -1.241817  KCAL/ANGSTROM
     19         15  C    CARTESIAN Y     2.186721     -0.785372  KCAL/ANGSTROM
     20         16  C    CARTESIAN X     4.639263     -0.540451  KCAL/ANGSTROM
     21         17  C    CARTESIAN Z     1.264243      0.264223  KCAL/ANGSTROM
     22         29  C    CARTESIAN Y    -2.915920      0.801463  KCAL/ANGSTROM
     23         33  C    CARTESIAN Z     2.527108     -0.279867  KCAL/ANGSTROM
     24         45  C    CARTESIAN Y    -2.186709      0.655180  KCAL/ANGSTROM
     25         47  C    CARTESIAN X     8.247096     -1.649312  KCAL/ANGSTROM
     26         48  C    CARTESIAN X     6.700654     -1.257244  KCAL/ANGSTROM
     27         49  C    CARTESIAN Z     3.790273     -0.793545  KCAL/ANGSTROM
     28         61  C    CARTESIAN Y    -4.373004      1.555124  KCAL/ANGSTROM
     29         65 Tv    CARTESIAN Y     5.831892     -1.337051  KCAL/ANGSTROM
     30         66 Tv    CARTESIAN Z    -5.052531      0.754659  KCAL/ANGSTROM
     31         67 Tv    CARTESIAN Z     5.052417     -0.812206  KCAL/ANGSTROM




   ATOM   CHEMICAL          X               Y               Z
  NUMBER   SYMBOL      (ANGSTROMS)     (ANGSTROMS)     (ANGSTROMS)
 
     1       C         -0.00040748  *  -0.00012661  *   0.00079044  *
     2       C         -1.54684334  *  -0.00012661      0.00079044   
     3       C          2.06171023  *   2.91524835  *   0.00079044   
     4       C          0.51517479  *   2.91524835      0.00079044   
     5       C          2.06171023      0.72883189  *  -1.26200561  *
     6       C          0.51517479      0.72883189     -1.26200561   
     7       C          4.12402670  *   3.64438150  *  -1.26200561   
     8       C          2.57732136  *   3.64438150     -1.26200561   
     9       C          2.06171023     -1.45807537  *  -2.52526053  *
    10       C          0.51517479     -1.45807537     -2.52526053   
    11       C          4.12402670      1.45766592  *  -2.52526053   
    12       C          2.57732136      1.45766592     -2.52526053   
    13       C          4.12402670     -0.72897974  *  -3.78805156  *
    14       C          2.57732136     -0.72897974     -3.78805156   
    15       C          6.18572430  *   2.18672106  *  -3.78805156   
    16       C          4.63926349  *   2.18672106     -3.78805156   
    17       C          2.06171023      0.72883189      1.26424285  *
    18       C          0.51517479      0.72883189      1.26424285   
    19       C          4.12402670      3.64438150      1.26424285   
    20       C          2.57732136      3.64438150      1.26424285   
    21       C          2.06171023     -1.45807537      0.00079044   
    22       C          0.51517479     -1.45807537      0.00079044   
    23       C          4.12402670      1.45766592      0.00079044   
    24       C          2.57732136      1.45766592      0.00079044   
    25       C          4.12402670     -0.72897974     -1.26200561   
    26       C          2.57732136     -0.72897974     -1.26200561   
    27       C          6.18572430      2.18672106     -1.26200561   
    28       C          4.63926349      2.18672106     -1.26200561   
    29       C          4.12402670     -2.91591965  *  -2.52526053   
    30       C          2.57732136     -2.91591965     -2.52526053   
    31       C          6.18572430     -0.00012661     -2.52526053   
    32       C          4.63926349     -0.00012661     -2.52526053   
    33       C          2.06171023     -1.45807537      2.52710755  *
    34       C          0.51517479     -1.45807537      2.52710755   
    35       C          4.12402670      1.45766592      2.52710755   
    36       C          2.57732136      1.45766592      2.52710755   
    37       C          4.12402670     -0.72897974      1.26424285   
    38       C          2.57732136     -0.72897974      1.26424285   
    39       C          6.18572430      2.18672106      1.26424285   
    40       C          4.63926349      2.18672106      1.26424285   
    41       C          4.12402670     -2.91591965      0.00079044   
    42       C          2.57732136     -2.91591965      0.00079044   
    43       C          6.18572430     -0.00012661      0.00079044   
    44       C          4.63926349     -0.00012661      0.00079044   
    45       C          6.18572430     -2.18670934  *  -1.26200561   
    46       C          4.63926349     -2.18670934     -1.26200561   
    47       C          8.24709615  *   0.72883189     -1.26200561   
    48       C          6.70065387  *   0.72883189     -1.26200561   
    49       C          4.12402670     -0.72897974      3.79027256  *
    50       C          2.57732136     -0.72897974      3.79027256   
    51       C          6.18572430      2.18672106      3.79027256   
    52       C          4.63926349      2.18672106      3.79027256   
    53       C          4.12402670     -2.91591965      2.52710755   
    54       C          2.57732136     -2.91591965      2.52710755   
    55       C          6.18572430     -0.00012661      2.52710755   
    56       C          4.63926349     -0.00012661      2.52710755   
    57       C          6.18572430     -2.18670934      1.26424285   
    58       C          4.63926349     -2.18670934      1.26424285   
    59       C          8.24709615      0.72883189      1.26424285   
    60       C          6.70065387      0.72883189      1.26424285   
    61       C          6.18572430     -4.37300367  *   0.00079044   
    62       C          4.63926349     -4.37300367      0.00079044   
    63       C          8.24709615     -1.45807537      0.00079044   
    64       C          6.70065387     -1.45807537      0.00079044   
    65      Tv          4.12402670      5.83189234  *   0.00079044   
    66      Tv          4.12402670     -2.91591965     -5.05253084  *
    67      Tv          4.12402670     -2.91591965      5.05241672  *

                             CARTESIAN COORDINATES

   1    C       -0.000407478    -0.000126607     0.000790436
   2    C       -1.546843338    -0.000126607     0.000790436
   3    C        2.061710234     2.915248348     0.000790436
   4    C        0.515174786     2.915248348     0.000790436
   5    C        2.061710234     0.728831888    -1.262005613
   6    C        0.515174786     0.728831888    -1.262005613
   7    C        4.124026702     3.644381502    -1.262005613
   8    C        2.577321365     3.644381502    -1.262005613
   9    C        2.061710234    -1.458075370    -2.525260532
  10    C        0.515174786    -1.458075370    -2.525260532
  11    C        4.124026702     1.457665917    -2.525260532
  12    C        2.577321365     1.457665917    -2.525260532
  13    C        4.124026702    -0.728979737    -3.788051559
  14    C        2.577321365    -0.728979737    -3.788051559
  15    C        6.185724303     2.186721058    -3.788051559
  16    C        4.639263494     2.186721058    -3.788051559
  17    C        2.061710234     0.728831888     1.264242854
  18    C        0.515174786     0.728831888     1.264242854
  19    C        4.124026702     3.644381502     1.264242854
  20    C        2.577321365     3.644381502     1.264242854
  21    C        2.061710234    -1.458075370     0.000790436
  22    C        0.515174786    -1.458075370     0.000790436
  23    C        4.124026702     1.457665917     0.000790436
  24    C        2.577321365     1.457665917     0.000790436
  25    C        4.124026702    -0.728979737    -1.262005613
  26    C        2.577321365    -0.728979737    -1.262005613
  27    C        6.185724303     2.186721058    -1.262005613
  28    C        4.639263494     2.186721058    -1.262005613
  29    C        4.124026702    -2.915919646    -2.525260532
  30    C        2.577321365    -2.915919646    -2.525260532
  31    C        6.185724303    -0.000126607    -2.525260532
  32    C        4.639263494    -0.000126607    -2.525260532
  33    C        2.061710234    -1.458075370     2.527107554
  34    C        0.515174786    -1.458075370     2.527107554
  35    C        4.124026702     1.457665917     2.527107554
  36    C        2.577321365     1.457665917     2.527107554
  37    C        4.124026702    -0.728979737     1.264242854
  38    C        2.577321365    -0.728979737     1.264242854
  39    C        6.185724303     2.186721058     1.264242854
  40    C        4.639263494     2.186721058     1.264242854
  41    C        4.124026702    -2.915919646     0.000790436
  42    C        2.577321365    -2.915919646     0.000790436
  43    C        6.185724303    -0.000126607     0.000790436
  44    C        4.639263494    -0.000126607     0.000790436
  45    C        6.185724303    -2.186709340    -1.262005613
  46    C        4.639263494    -2.186709340    -1.262005613
  47    C        8.247096152     0.728831888    -1.262005613
  48    C        6.700653871     0.728831888    -1.262005613
  49    C        4.124026702    -0.728979737     3.790272558
  50    C        2.577321365    -0.728979737     3.790272558
  51    C        6.185724303     2.186721058     3.790272558
  52    C        4.639263494     2.186721058     3.790272558
  53    C        4.124026702    -2.915919646     2.527107554
  54    C        2.577321365    -2.915919646     2.527107554
  55    C        6.185724303    -0.000126607     2.527107554
  56    C        4.639263494    -0.000126607     2.527107554
  57    C        6.185724303    -2.186709340     1.264242854
  58    C        4.639263494    -2.186709340     1.264242854
  59    C        8.247096152     0.728831888     1.264242854
  60    C        6.700653871     0.728831888     1.264242854
  61    C        6.185724303    -4.373003671     0.000790436
  62    C        4.639263494    -4.373003671     0.000790436
  63    C        8.247096152    -1.458075370     0.000790436
  64    C        6.700653871    -1.458075370     0.000790436


           Empirical Formula: C64  =    64 atoms



                  EIGENVALUES  
 -37.86168 -34.87666 -34.87563 -34.87450 -34.87411 -34.87244 -34.86945 -30.64963
 -30.64869 -30.64315 -30.64241 -30.64113 -30.64103 -30.63932 -30.63849 -30.63728
 -30.63665 -30.63391 -30.63325 -26.35145 -26.34692 -26.34016 -26.33757 -26.29572
 -26.29497 -26.29465 -26.29349 -23.42889 -23.42770 -23.42716 -23.42699 -23.42329
 -23.42215 -22.00940 -22.00835 -22.00794 -22.00723 -22.00611 -22.00565 -22.00414
 -22.00407 -22.00295 -22.00119 -22.00070 -21.99953 -17.96745 -17.96722 -17.96669
 -17.96563 -17.96513 -17.96493 -17.96418 -17.96250 -17.96204 -17.96159 -17.95883
 -17.95768 -17.46614 -17.46572 -17.46518 -17.46475 -17.46430 -17.46404 -17.46377
 -17.46313 -17.46304 -17.46277 -17.46219 -17.46182 -16.28716 -16.28659 -16.28625
 -16.28611 -16.28572 -16.28540 -16.28503 -16.28479 -16.28364 -16.28307 -16.28292
 -16.28243 -15.67295 -15.67019 -15.66895 -15.66890 -15.66872 -15.66816 -13.52402
 -13.52367 -13.52314 -13.52234 -13.52028 -13.52014 -13.10735 -13.10667 -13.10490
 -13.10437 -13.10418 -13.10357 -13.10351 -13.10297 -13.10280 -13.10267 -13.10205
 -13.10171 -12.34119 -12.34065 -12.33983 -12.33939 -12.33904 -12.33873 -12.33856
 -12.33799 -12.33774 -12.33719 -12.33700 -12.33636 -12.24061 -12.23958 -12.23862
 -12.23762 -12.23687 -12.23600 -12.23315 -12.23282  -9.88598  -9.88327  -9.88231
  -0.04759  -0.04418  -0.04027   0.96006   0.96040   0.96147   0.96202   0.96234
   0.96250   1.57007   1.57057   1.57088   1.57155   1.57175   1.57211   1.57230
   1.57262   1.65205   1.65242   1.65244   1.65281   1.65291   1.65301   1.65310
   1.65320   1.65332   1.65349   1.65369   1.65392   1.88313   1.88320   1.88324
   1.88333   1.88398   1.88414   1.88433   1.88449   1.88456   1.88470   1.88475
   1.88539   1.89929   1.89960   1.90229   1.90257   1.90303   1.90346   1.90371
   1.90389   1.90432   1.90475   1.90520   1.90551   2.57874   2.57915   2.57941
   2.57979   2.61251   2.61662   2.61716   2.61785   2.61883   2.62119   2.78363
   2.78371   2.78392   2.78408   2.78413   2.78420   2.78501   2.78512   2.78521
   2.78529   2.78536   2.78549   2.99406   2.99409   2.99490   2.99511   2.99532
   2.99558   2.99565   2.99579   2.99597   2.99619   2.99775   2.99830   3.09390
   3.09537   3.09604   3.09618   3.09683   3.09880   3.10659   3.23572   3.23625
   3.23651   3.23695   3.23931   3.23949   3.24061   3.24096   3.24191   3.24253
   3.24263   3.24316   3.40123   3.40146   3.40155   3.40183   3.40225   3.40243
   3.60462   3.60498   3.60701   3.60736   3.60810   3.60870   3.60908   3.60919
   3.60993   3.61041   3.61292   3.61323   4.00280   4.00376   4.00405   4.00453


              NET ATOMIC CHARGES AND DIPOLE CONTRIBUTIONS

  ATOM NO.   TYPE          CHARGE      No. of ELECS.   s-Pop       p-Pop       
    1          C          -0.000015        4.0000     1.07379     2.92622
    2          C           0.000054        3.9999     1.07406     2.92588
    3          C          -0.000063        4.0001     1.07379     2.92627
    4          C          -0.000020        4.0000     1.07384     2.92618
    5          C          -0.000027        4.0000     1.07377     2.92626
    6          C          -0.000004        4.0000     1.07377     2.92624
    7          C           0.000005        4.0000     1.07380     2.92619
    8          C           0.000024        4.0000     1.07387     2.92610
    9          C          -0.000016        4.0000     1.07382     2.92620
   10          C          -0.000055        4.0001     1.07387     2.92618
   11          C           0.000032        4.0000     1.07375     2.92622
   12          C           0.000034        4.0000     1.07384     2.92613
   13          C           0.000006        4.0000     1.07377     2.92622
   14          C           0.000008        4.0000     1.07386     2.92613
   15          C          -0.000023        4.0000     1.07394     2.92608
   16          C          -0.000055        4.0001     1.07390     2.92616
   17          C          -0.000038        4.0000     1.07379     2.92625
   18          C          -0.000004        4.0000     1.07380     2.92620
   19          C          -0.000004        4.0000     1.07383     2.92618
   20          C           0.000057        3.9999     1.07394     2.92600
   21          C          -0.000053        4.0001     1.07385     2.92620
   22          C           0.000030        4.0000     1.07385     2.92612
   23          C           0.000123        3.9999     1.07379     2.92609
   24          C           0.000001        4.0000     1.07378     2.92622
   25          C           0.000055        3.9999     1.07370     2.92624
   26          C           0.000035        4.0000     1.07385     2.92612
   27          C           0.000006        4.0000     1.07381     2.92619
   28          C          -0.000061        4.0001     1.07368     2.92638
   29          C           0.000015        4.0000     1.07383     2.92616
   30          C          -0.000024        4.0000     1.07386     2.92616
   31          C          -0.000052        4.0001     1.07378     2.92627
   32          C          -0.000000        4.0000     1.07366     2.92634
   33          C          -0.000048        4.0000     1.07379     2.92625
   34          C          -0.000054        4.0001     1.07389     2.92617
   35          C           0.000016        4.0000     1.07374     2.92624
   36          C           0.000056        3.9999     1.07385     2.92610
   37          C           0.000062        3.9999     1.07374     2.92620
   38          C           0.000058        3.9999     1.07388     2.92606
   39          C           0.000006        4.0000     1.07384     2.92615
   40          C          -0.000043        4.0000     1.07371     2.92633
   41          C          -0.000069        4.0001     1.07368     2.92638
   42          C           0.000079        3.9999     1.07390     2.92602
   43          C           0.000075        3.9999     1.07369     2.92623
   44          C          -0.000005        4.0000     1.07373     2.92628
   45          C          -0.000071        4.0001     1.07375     2.92632
   46          C           0.000037        4.0000     1.07372     2.92624
   47          C           0.000058        3.9999     1.07402     2.92592
   48          C          -0.000048        4.0000     1.07366     2.92639
   49          C          -0.000003        4.0000     1.07372     2.92628
   50          C           0.000013        4.0000     1.07384     2.92615
   51          C          -0.000047        4.0000     1.07388     2.92617
   52          C          -0.000062        4.0001     1.07387     2.92619
   53          C           0.000001        4.0000     1.07380     2.92619
   54          C           0.000022        4.0000     1.07387     2.92610
   55          C          -0.000023        4.0000     1.07378     2.92624
   56          C          -0.000000        4.0000     1.07366     2.92634
   57          C          -0.000042        4.0000     1.07377     2.92627
   58          C           0.000055        3.9999     1.07377     2.92617
   59          C           0.000086        3.9999     1.07405     2.92586
   60          C          -0.000050        4.0000     1.07369     2.92636
   61          C          -0.000048        4.0000     1.07390     2.92615
   62          C          -0.000019        4.0000     1.07391     2.92611
   63          C           0.000083        3.9999     1.07403     2.92588
   64          C          -0.000048        4.0000     1.07363     2.92642


          ATOMIC ORBITAL ELECTRON POPULATIONS

     Atom    s        px        py        pz   
    1  C   1.07379   0.97553   0.97541   0.97528
    2  C   1.07406   0.97528   0.97534   0.97526
    3  C   1.07379   0.97543   0.97549   0.97535
    4  C   1.07384   0.97540   0.97553   0.97525
    5  C   1.07377   0.97544   0.97547   0.97534
    6  C   1.07377   0.97542   0.97545   0.97536
    7  C   1.07380   0.97542   0.97542   0.97536
    8  C   1.07387   0.97539   0.97541   0.97530
    9  C   1.07382   0.97543   0.97543   0.97535
   10  C   1.07387   0.97538   0.97539   0.97541
   11  C   1.07375   0.97543   0.97544   0.97536
   12  C   1.07384   0.97540   0.97543   0.97530
   13  C   1.07377   0.97543   0.97548   0.97531
   14  C   1.07386   0.97538   0.97543   0.97532
   15  C   1.07394   0.97535   0.97542   0.97531
   16  C   1.07390   0.97541   0.97546   0.97529
   17  C   1.07379   0.97546   0.97547   0.97531
   18  C   1.07380   0.97542   0.97545   0.97533
   19  C   1.07383   0.97544   0.97540   0.97533
   20  C   1.07394   0.97538   0.97538   0.97525
   21  C   1.07385   0.97544   0.97541   0.97534
   22  C   1.07385   0.97542   0.97539   0.97531
   23  C   1.07379   0.97540   0.97541   0.97528
   24  C   1.07378   0.97542   0.97547   0.97532
   25  C   1.07370   0.97546   0.97544   0.97533
   26  C   1.07385   0.97535   0.97542   0.97534
   27  C   1.07381   0.97541   0.97538   0.97539
   28  C   1.07368   0.97551   0.97549   0.97539
   29  C   1.07383   0.97542   0.97543   0.97530
   30  C   1.07386   0.97541   0.97542   0.97532
   31  C   1.07378   0.97544   0.97550   0.97533
   32  C   1.07366   0.97551   0.97549   0.97535
   33  C   1.07379   0.97546   0.97545   0.97535
   34  C   1.07389   0.97539   0.97539   0.97538
   35  C   1.07374   0.97544   0.97543   0.97537
   36  C   1.07385   0.97540   0.97539   0.97530
   37  C   1.07374   0.97544   0.97545   0.97530
   38  C   1.07388   0.97537   0.97541   0.97529
   39  C   1.07384   0.97540   0.97538   0.97537
   40  C   1.07371   0.97551   0.97547   0.97535
   41  C   1.07368   0.97549   0.97555   0.97535
   42  C   1.07390   0.97534   0.97540   0.97528
   43  C   1.07369   0.97548   0.97543   0.97533
   44  C   1.07373   0.97551   0.97545   0.97532
   45  C   1.07375   0.97548   0.97551   0.97534
   46  C   1.07372   0.97545   0.97544   0.97535
   47  C   1.07402   0.97533   0.97533   0.97527
   48  C   1.07366   0.97551   0.97551   0.97537
   49  C   1.07372   0.97545   0.97548   0.97536
   50  C   1.07384   0.97540   0.97543   0.97532
   51  C   1.07388   0.97537   0.97543   0.97536
   52  C   1.07387   0.97542   0.97546   0.97531
   53  C   1.07380   0.97542   0.97544   0.97534
   54  C   1.07387   0.97540   0.97540   0.97531
   55  C   1.07378   0.97542   0.97549   0.97534
   56  C   1.07366   0.97552   0.97547   0.97535
   57  C   1.07377   0.97547   0.97550   0.97531
   58  C   1.07377   0.97543   0.97544   0.97530
   59  C   1.07405   0.97531   0.97533   0.97522
   60  C   1.07369   0.97550   0.97551   0.97535
   61  C   1.07390   0.97539   0.97544   0.97531
   62  C   1.07391   0.97539   0.97536   0.97536
   63  C   1.07403   0.97531   0.97534   0.97523
   64  C   1.07363   0.97553   0.97550   0.97538

 **********************
 *                    *
 * JOB ENDED NORMALLY *
 *                    *
 **********************



 TOTAL JOB TIME:           130.82 SECONDS

 == MOPAC DONE ==
