

 Parallel Execution: Process Information
 ==============================================================================
 Rank   Node Name                              NodeID   MyNodeRank  NodeMaster
    0   adf1                                      0          0          0
    1   adf1                                      0          1         -1
    2   adf1                                      0          2         -1
    3   adf1                                      0          3         -1
    4   adf1                                      0          4         -1
    5   adf1                                      0          5         -1
    6   adf1                                      1          0          1
    7   adf1                                      1          1         -1
    8   adf1                                      1          2         -1
    9   adf1                                      1          3         -1
   10   adf1                                      1          4         -1
   11   adf1                                      1          5         -1
 ==============================================================================


May use up to 11697MB of RAM as shared memory on node 0
May use up to 11718MB of RAM as shared memory on node 1

 *******************************************************************************
 *                                                                             *
 *  --------------------------------                                           *
 *   Amsterdam Modeling Suite (AMS)              2022.103                      *
 *  --------------------------------                                           *
 *                                               r104852 2022-06-15            *
 *                                                                             *
 *                                                                             *
 *                              =================                              *
 *                              |               |                              *
 *                              |     A M S     |                              *
 *                              |               |                              *
 *                              =================                              *
 *                                                                             *
 *                                                                             *
 *   Online information and documentation:  https://www.scm.com/support/       *
 *   E-mail:  support@scm.com   info@scm.com                                   *
 *                                                                             *
 *   Scientific publications using AMS results must be properly referenced     *
 *   See the User Manuals (or the web site) for recommended citations          *
 *   The terms and conditions of the End User License Agreement apply to       *
 *   the use of AMS, https://www.scm.com/license-terms/                        *
 *                                                                             *
 **********************  x86_64_linux_intel / intelmpi  ************************
 
 Licensed to: Dr. Miroslav Ilias / Matej Bel University, Department Chemistry, Fac. Natural Sciences / Banska Bystrica / SLOVAKIA 2022-06-16 16:10:08
 SCM User ID: u17848
  
 AMS 2022.103  RunTime: Jul27-2022 14:49:09  ShM Nodes: 2  Procs: 12

 AMS jobname: ams
 AMS jobid  : 383257404

 Start   directory: /home/milias/Work/projects/open-collection/theoretical_chemistry/software_runs/ams/runs/reaxff/combustion_simulation/tmp.milias.1081.0.noindex/
 Results directory: /home/milias/Work/projects/open-collection/theoretical_chemistry/software_runs/ams/runs/reaxff/combustion_simulation/carbohydrate-in-oxygen.md_dftb.results/
 Scratch directory: /tmp/amstmp_ams_kid0.383257404/


 Communication costs MPI_COMM_WORLD:      2.825 usec per message,   0.0271 usec per 8-byte item
 Communication costs for intra-node:      1.600 usec per message,   0.0132 usec per 8-byte item

 RNG seed: 1862282141 1319065550 1088931004 341450224 1512091372 -2069963991 -2046329590 1735149319
 
 ============
 Timer stack:
 ------------
  1658926148.92  AMS
 ============

Selected parameter set does not support the GFN1-xTB model Hamiltonian. (GFN1-xTB is the default model since AMS2020.)
