 argument  1 = NeHe.scf_bsse.nw
                                         
                                         


             Northwest Computational Chemistry Package (NWChem) 7.2.2
             --------------------------------------------------------


                    Environmental Molecular Sciences Laboratory
                       Pacific Northwest National Laboratory
                                Richland, WA 99352

                              Copyright (c) 1994-2022
                       Pacific Northwest National Laboratory
                            Battelle Memorial Institute

             NWChem is an open-source computational chemistry package
                        distributed under the terms of the
                      Educational Community License (ECL) 2.0
             A copy of the license is included with this distribution
                              in the LICENSE.TXT file

                                  ACKNOWLEDGMENT
                                  --------------

            This software and its documentation were developed at the
            EMSL at Pacific Northwest National Laboratory, a multiprogram
            national laboratory, operated for the U.S. Department of Energy
            by Battelle under Contract Number DE-AC05-76RL01830. Support
            for this work was provided by the Department of Energy Office
            of Biological and Environmental Research, Office of Basic
            Energy Sciences, and the Office of Advanced Scientific Computing.


           Job information
           ---------------

    hostname        = MIRO
    program         = nwchem
    date            = Sat Aug 23 20:54:51 2025

    compiled        = Mon_Apr_01_11:12:32_2024
    source          = /build/nwchem-qbYJLs/nwchem-7.2.2/build-openmpi
    nwchem branch   = 7.2.2
    nwchem revision = N/A
    ga revision     = N/A
    use scalapack   = T
    input           = NeHe.scf_bsse.nw
    prefix          = NeHe.scf_bsse.
    data base       = ./NeHe.scf_bsse.db
    status          = restart
    nproc           =        2
    time left       =     -1s



           Memory information
           ------------------

    heap     =   26214400 doubles =    200.0 Mbytes
    stack    =   26214397 doubles =    200.0 Mbytes
    global   =   52428800 doubles =    400.0 Mbytes (distinct from heap & stack)
    total    =  104857597 doubles =    800.0 Mbytes
    verify   = yes
    hardfail = no 


           Directory information
           ---------------------

  0 permanent = .
  0 scratch   = .


           Previous task information
           -------------------------

    Theory    = mp2                             
    Operation =                               
    Status    = ok                            
    Qmmm      = F
    Ignore    = F


           Geometries in the database
           --------------------------

       Name                              Natoms  Last Modified
       --------------------------------  ------  ------------------------
    1  geometry                               2  Sat Aug 23 20:54:27 2025  

  The geometry named "geometry" is the default for restart



           Basis sets in the database
           --------------------------

       Name                              Natoms  Last Modified
        --------------------------------  ------  ------------------------
    1  ao basis                               4  Sat Aug 23 20:54:23 2025  

  The basis set named "ao basis" is the default AO basis for restart




                                NWChem Input Module
                                -------------------


                      Basis "ao basis" -> "" (spherical)
                      -----
  Ne (Neon)
  ---------
            Exponent  Coefficients 
       -------------- ---------------------------------------------------------
  1 S  1.78800000E+04  0.000738
  1 S  2.68300000E+03  0.005677
  1 S  6.11500000E+02  0.028883
  1 S  1.73500000E+02  0.108540
  1 S  5.66400000E+01  0.290907
  1 S  2.04200000E+01  0.448324
  1 S  7.81000000E+00  0.258026
  1 S  1.65300000E+00  0.015063

  2 S  1.78800000E+04 -0.000172
  2 S  2.68300000E+03 -0.001357
  2 S  6.11500000E+02 -0.006737
  2 S  1.73500000E+02 -0.027663
  2 S  5.66400000E+01 -0.076208
  2 S  2.04200000E+01 -0.175227
  2 S  7.81000000E+00 -0.107038
  2 S  1.65300000E+00  0.567050

  3 S  4.86900000E-01  1.000000

  4 P  2.83900000E+01  0.046087
  4 P  6.27000000E+00  0.240181
  4 P  1.69500000E+00  0.508744

  5 P  4.31700000E-01  1.000000

  6 D  2.20200000E+00  1.000000

  BqNe
  ----
            Exponent  Coefficients 
       -------------- ---------------------------------------------------------
  1 S  1.78800000E+04  0.000738
  1 S  2.68300000E+03  0.005677
  1 S  6.11500000E+02  0.028883
  1 S  1.73500000E+02  0.108540
  1 S  5.66400000E+01  0.290907
  1 S  2.04200000E+01  0.448324
  1 S  7.81000000E+00  0.258026
  1 S  1.65300000E+00  0.015063

  2 S  1.78800000E+04 -0.000172
  2 S  2.68300000E+03 -0.001357
  2 S  6.11500000E+02 -0.006737
  2 S  1.73500000E+02 -0.027663
  2 S  5.66400000E+01 -0.076208
  2 S  2.04200000E+01 -0.175227
  2 S  7.81000000E+00 -0.107038
  2 S  1.65300000E+00  0.567050

  3 S  4.86900000E-01  1.000000

  4 P  2.83900000E+01  0.046087
  4 P  6.27000000E+00  0.240181
  4 P  1.69500000E+00  0.508744

  5 P  4.31700000E-01  1.000000

  6 D  2.20200000E+00  1.000000

  He (Helium)
  -----------
            Exponent  Coefficients 
       -------------- ---------------------------------------------------------
  1 S  3.83600000E+01  0.023809
  1 S  5.77000000E+00  0.154891
  1 S  1.24000000E+00  0.469987

  2 S  2.97600000E-01  1.000000

  3 P  1.27500000E+00  1.000000

  BqHe
  ----
            Exponent  Coefficients 
       -------------- ---------------------------------------------------------
  1 S  3.83600000E+01  0.023809
  1 S  5.77000000E+00  0.154891
  1 S  1.24000000E+00  0.469987

  2 S  2.97600000E-01  1.000000

  3 P  1.27500000E+00  1.000000



 Summary of "ao basis" -> "" (spherical)
 ------------------------------------------------------------------------------
       Tag                 Description            Shells   Functions and Types
 ---------------- ------------------------------  ------  ---------------------
 Ne                         cc-pvdz                  6       14   3s2p1d
 BqNe                       cc-pvdz                  6       14   3s2p1d
 He                         cc-pvdz                  3        5   2s1p
 BqHe                       cc-pvdz                  3        5   2s1p



                               NWChem Python program
                               ---------------------

supermolecule = 'geometry noprint;   Ne 0 0 0;   He 0 0 %f; end\n'
fragment1     = 'geometry noprint;   Ne 0 0 0; BqHe 0 0 %f; end\n'
fragment2     = 'geometry noprint; BqNe 0 0 0;   He 0 0 %f; end\n'

def energy(geometry):
  input_parse(geometry + 'scf; vectors atomic; end\n')
  return task_energy('mp2')

def bsse_energy(z):
  return energy(supermolecule % z) - \
      energy(fragment1 % z) - \
      energy(fragment2 % z)
z = 3.3
while (z < 4.301):
  e = bsse_energy(z)
  if (ga_nodeid() == 0): print (' z = %5.2f   energy = %10.7f ' % (z, e))
  z = z + 0.1


 !! scf_movecs_sym_adapt:    2 vectors were symmetry contaminated

  Symmetry fudging

 !! scf_movecs_sym_adapt:    2 vectors were symmetry contaminated

  mp2_memr nvloc                     7
  nvloc new                     7
  vrange nnbf                   180

 !! scf_movecs_sym_adapt:    4 vectors were symmetry contaminated

  Symmetry fudging

 !! scf_movecs_sym_adapt:    4 vectors were symmetry contaminated

  mp2_memr nvloc                     7
  nvloc new                     7
  vrange nnbf                   180

 !! scf_movecs_sym_adapt:    2 vectors were symmetry contaminated

  Symmetry fudging

 !! scf_movecs_sym_adapt:    2 vectors were symmetry contaminated

  mp2_memr nvloc                     9
  nvloc new                     9
  vrange nnbf                   180
 z =  3.30   energy =  0.0000026 

 !! scf_movecs_sym_adapt:    2 vectors were symmetry contaminated

  Symmetry fudging

 !! scf_movecs_sym_adapt:    2 vectors were symmetry contaminated

  mp2_memr nvloc                     7
  nvloc new                     7
  vrange nnbf                   159

 !! scf_movecs_sym_adapt:    4 vectors were symmetry contaminated

  Symmetry fudging

 !! scf_movecs_sym_adapt:    4 vectors were symmetry contaminated

  mp2_memr nvloc                     7
  nvloc new                     7
  vrange nnbf                   159

 !! scf_movecs_sym_adapt:    3 vectors were symmetry contaminated

  Symmetry fudging

 !! scf_movecs_sym_adapt:    2 vectors were symmetry contaminated

  mp2_memr nvloc                     9
  nvloc new                     9
  vrange nnbf                   159
 z =  3.40   energy = -0.0000006 

 !! scf_movecs_sym_adapt:    4 vectors were symmetry contaminated

  Symmetry fudging

 !! scf_movecs_sym_adapt:    2 vectors were symmetry contaminated

  mp2_memr nvloc                     7
  nvloc new                     7
  vrange nnbf                   150

 !! scf_movecs_sym_adapt:    4 vectors were symmetry contaminated

  Symmetry fudging

 !! scf_movecs_sym_adapt:    4 vectors were symmetry contaminated

  mp2_memr nvloc                     7
  nvloc new                     7
  vrange nnbf                   150

 !! scf_movecs_sym_adapt:    4 vectors were symmetry contaminated

  Symmetry fudging

 !! scf_movecs_sym_adapt:    2 vectors were symmetry contaminated

  mp2_memr nvloc                     9
  nvloc new                     9
  vrange nnbf                   150
 z =  3.50   energy = -0.0000020 

 !! scf_movecs_sym_adapt:    4 vectors were symmetry contaminated

  Symmetry fudging

 !! scf_movecs_sym_adapt:    2 vectors were symmetry contaminated

  mp2_memr nvloc                     7
  nvloc new                     7
  vrange nnbf                   150

 !! scf_movecs_sym_adapt:    4 vectors were symmetry contaminated

  Symmetry fudging

 !! scf_movecs_sym_adapt:    4 vectors were symmetry contaminated

  mp2_memr nvloc                     7
  nvloc new                     7
  vrange nnbf                   150

 !! scf_movecs_sym_adapt:    4 vectors were symmetry contaminated

  Symmetry fudging

 !! scf_movecs_sym_adapt:    2 vectors were symmetry contaminated

  mp2_memr nvloc                     9
  nvloc new                     9
  vrange nnbf                   150
 z =  3.60   energy = -0.0000025 

 !! scf_movecs_sym_adapt:    4 vectors were symmetry contaminated

  Symmetry fudging

 !! scf_movecs_sym_adapt:    2 vectors were symmetry contaminated

  mp2_memr nvloc                     7
  nvloc new                     7
  vrange nnbf                   150

 !! scf_movecs_sym_adapt:    4 vectors were symmetry contaminated

  Symmetry fudging

 !! scf_movecs_sym_adapt:    4 vectors were symmetry contaminated

  mp2_memr nvloc                     7
  nvloc new                     7
  vrange nnbf                   150

 !! scf_movecs_sym_adapt:    4 vectors were symmetry contaminated

  Symmetry fudging

 !! scf_movecs_sym_adapt:    3 vectors were symmetry contaminated

  mp2_memr nvloc                     9
  nvloc new                     9
  vrange nnbf                   150
 z =  3.70   energy = -0.0000025 

 !! scf_movecs_sym_adapt:    4 vectors were symmetry contaminated

  Symmetry fudging

 !! scf_movecs_sym_adapt:    3 vectors were symmetry contaminated

  mp2_memr nvloc                     7
  nvloc new                     7
  vrange nnbf                   150

 !! scf_movecs_sym_adapt:    4 vectors were symmetry contaminated

  Symmetry fudging

 !! scf_movecs_sym_adapt:    4 vectors were symmetry contaminated

  mp2_memr nvloc                     7
  nvloc new                     7
  vrange nnbf                   150

 !! scf_movecs_sym_adapt:    4 vectors were symmetry contaminated

  Symmetry fudging

 !! scf_movecs_sym_adapt:    4 vectors were symmetry contaminated

  mp2_memr nvloc                     9
  nvloc new                     9
  vrange nnbf                   150
 z =  3.80   energy = -0.0000024 

 !! scf_movecs_sym_adapt:    4 vectors were symmetry contaminated

  Symmetry fudging

 !! scf_movecs_sym_adapt:    3 vectors were symmetry contaminated

  mp2_memr nvloc                     7
  nvloc new                     7
  vrange nnbf                   150

 !! scf_movecs_sym_adapt:    4 vectors were symmetry contaminated

  Symmetry fudging

 !! scf_movecs_sym_adapt:    4 vectors were symmetry contaminated

  mp2_memr nvloc                     7
  nvloc new                     7
  vrange nnbf                   150

 !! scf_movecs_sym_adapt:    4 vectors were symmetry contaminated

  Symmetry fudging

 !! scf_movecs_sym_adapt:    4 vectors were symmetry contaminated

  mp2_memr nvloc                     9
  nvloc new                     9
  vrange nnbf                   150
 z =  3.90   energy = -0.0000021 

 !! scf_movecs_sym_adapt:    4 vectors were symmetry contaminated

  Symmetry fudging

 !! scf_movecs_sym_adapt:    4 vectors were symmetry contaminated

  mp2_memr nvloc                     7
  nvloc new                     7
  vrange nnbf                   150

 !! scf_movecs_sym_adapt:    4 vectors were symmetry contaminated

  Symmetry fudging

 !! scf_movecs_sym_adapt:    4 vectors were symmetry contaminated

  mp2_memr nvloc                     7
  nvloc new                     7
  vrange nnbf                   150

 !! scf_movecs_sym_adapt:    4 vectors were symmetry contaminated

  Symmetry fudging

 !! scf_movecs_sym_adapt:    4 vectors were symmetry contaminated

  mp2_memr nvloc                     9
  nvloc new                     9
  vrange nnbf                   150
 z =  4.00   energy = -0.0000019 

 !! scf_movecs_sym_adapt:    6 vectors were symmetry contaminated

  Symmetry fudging

 !! scf_movecs_sym_adapt:    4 vectors were symmetry contaminated

  mp2_memr nvloc                     7
  nvloc new                     7
  vrange nnbf                   150

 !! scf_movecs_sym_adapt:    6 vectors were symmetry contaminated

  Symmetry fudging

 !! scf_movecs_sym_adapt:    4 vectors were symmetry contaminated

  mp2_memr nvloc                     7
  nvloc new                     7
  vrange nnbf                   150

 !! scf_movecs_sym_adapt:    6 vectors were symmetry contaminated

  Symmetry fudging

 !! scf_movecs_sym_adapt:    4 vectors were symmetry contaminated

  mp2_memr nvloc                     9
  nvloc new                     9
  vrange nnbf                   150
 z =  4.10   energy = -0.0000016 

 !! scf_movecs_sym_adapt:    6 vectors were symmetry contaminated

  Symmetry fudging

 !! scf_movecs_sym_adapt:    4 vectors were symmetry contaminated

  mp2_memr nvloc                     7
  nvloc new                     7
  vrange nnbf                   150

 !! scf_movecs_sym_adapt:    6 vectors were symmetry contaminated

  Symmetry fudging

 !! scf_movecs_sym_adapt:    4 vectors were symmetry contaminated

  mp2_memr nvloc                     7
  nvloc new                     7
  vrange nnbf                   150

 !! scf_movecs_sym_adapt:    7 vectors were symmetry contaminated

  Symmetry fudging

 !! scf_movecs_sym_adapt:    4 vectors were symmetry contaminated

  mp2_memr nvloc                     9
  nvloc new                     9
  vrange nnbf                   150
 z =  4.20   energy = -0.0000014 

 !! scf_movecs_sym_adapt:    6 vectors were symmetry contaminated

  Symmetry fudging

 !! scf_movecs_sym_adapt:    4 vectors were symmetry contaminated

  mp2_memr nvloc                     7
  nvloc new                     7
  vrange nnbf                   150

 !! scf_movecs_sym_adapt:    6 vectors were symmetry contaminated

  Symmetry fudging

 !! scf_movecs_sym_adapt:    4 vectors were symmetry contaminated

  mp2_memr nvloc                     7
  nvloc new                     7
  vrange nnbf                   150

 !! scf_movecs_sym_adapt:    8 vectors were symmetry contaminated

  Symmetry fudging

 !! scf_movecs_sym_adapt:    5 vectors were symmetry contaminated

  mp2_memr nvloc                     9
  nvloc new                     9
  vrange nnbf                   150
 z =  4.30   energy = -0.0000012 


                                     CITATION
                                     --------
                Please cite the following reference when publishing
                           results obtained with NWChem:

          E. Apra, E. J. Bylaska, W. A. de Jong, N. Govind, K. Kowalski,
       T. P. Straatsma, M. Valiev, H. J. J. van Dam, Y. Alexeev, J. Anchell,
       V. Anisimov, F. W. Aquino, R. Atta-Fynn, J. Autschbach, N. P. Bauman,
     J. C. Becca, D. E. Bernholdt, K. Bhaskaran-Nair, S. Bogatko, P. Borowski,
         J. Boschen, J. Brabec, A. Bruner, E. Cauet, Y. Chen, G. N. Chuev,
      C. J. Cramer, J. Daily, M. J. O. Deegan, T. H. Dunning Jr., M. Dupuis,
   K. G. Dyall, G. I. Fann, S. A. Fischer, A. Fonari, H. Fruchtl, L. Gagliardi,
      J. Garza, N. Gawande, S. Ghosh, K. Glaesemann, A. W. Gotz, J. Hammond,
       V. Helms, E. D. Hermes, K. Hirao, S. Hirata, M. Jacquelin, L. Jensen,
   B. G. Johnson, H. Jonsson, R. A. Kendall, M. Klemm, R. Kobayashi, V. Konkov,
      S. Krishnamoorthy, M. Krishnan, Z. Lin, R. D. Lins, R. J. Littlefield,
      A. J. Logsdail, K. Lopata, W. Ma, A. V. Marenich, J. Martin del Campo,
   D. Mejia-Rodriguez, J. E. Moore, J. M. Mullin, T. Nakajima, D. R. Nascimento,
    J. A. Nichols, P. J. Nichols, J. Nieplocha, A. Otero-de-la-Roza, B. Palmer,
    A. Panyala, T. Pirojsirikul, B. Peng, R. Peverati, J. Pittner, L. Pollack,
   R. M. Richard, P. Sadayappan, G. C. Schatz, W. A. Shelton, D. W. Silverstein,
   D. M. A. Smith, T. A. Soares, D. Song, M. Swart, H. L. Taylor, G. S. Thomas,
            V. Tipparaju, D. G. Truhlar, K. Tsemekhman, T. Van Voorhis,
      A. Vazquez-Mayagoitia, P. Verma, O. Villa, A. Vishnu, K. D. Vogiatzis,
        D. Wang, J. H. Weare, M. J. Williamson, T. L. Windus, K. Wolinski,
        A. T. Wong, Q. Wu, C. Yang, Q. Yu, M. Zacharias, Z. Zhang, Y. Zhao,
                                and R. J. Harrison
                        "NWChem: Past, present, and future
                         J. Chem. Phys. 152, 184102 (2020)
                               doi:10.1063/5.0004997

                                      AUTHORS
                                      -------
  E. Apra, E. J. Bylaska, N. Govind, K. Kowalski, M. Valiev, D. Mejia-Rodriguez,
       A. Kunitsa, N. P. Bauman, A. Panyala, W. A. de Jong, T. P. Straatsma,
   H. J. J. van Dam, D. Wang, T. L. Windus, J. Hammond, J. Autschbach, A. Woods,
    K. Bhaskaran-Nair, J. Brabec, K. Lopata, S. A. Fischer, S. Krishnamoorthy,
     M. Jacquelin, W. Ma, M. Klemm, O. Villa, Y. Chen, V. Anisimov, F. Aquino,
     S. Hirata, M. T. Hackler, E. Hermes, L. Jensen, J. E. Moore, J. C. Becca,
      V. Konjkov, T. Risthaus, M. Malagoli, A. Marenich, A. Otero-de-la-Roza,
        J. Mullin, P. Nichols, R. Peverati, J. Pittner, Y. Zhao, P.-D. Fan,
        A. Fonari, M. J. Williamson, R. J. Harrison, J. R. Rehr, M. Dupuis,
     D. Silverstein, D. M. A. Smith, J. Nieplocha, V. Tipparaju, M. Krishnan,
     B. E. Van Kuiken, A. Vazquez-Mayagoitia, M. Swart, Q. Wu, T. Van Voorhis,
     A. A. Auer, M. Nooijen, L. D. Crosby, E. Brown, G. Cisneros, G. I. Fann,
   H. Fruchtl, J. Garza, K. Hirao, R. A. Kendall, J. A. Nichols, K. Tsemekhman,
    K. Wolinski, J. Anchell, D. E. Bernholdt, P. Borowski, T. Clark, D. Clerc,
   H. Dachsel, M. J. O. Deegan, K. Dyall, D. Elwood, E. Glendening, M. Gutowski,
   A. C. Hess, J. Jaffe, B. G. Johnson, J. Ju, R. Kobayashi, R. Kutteh, Z. Lin,
   R. Littlefield, X. Long, B. Meng, T. Nakajima, S. Niu, L. Pollack, M. Rosing,
   K. Glaesemann, G. Sandrone, M. Stave, H. Taylor, G. Thomas, J. H. van Lenthe,
                               A. T. Wong, Z. Zhang.

 Total times  cpu:        2.2s     wall:        3.9s
