

 Parallel Execution: Process Information
 ==============================================================================
 Rank   Node Name                              NodeID   MyNodeRank  NodeMaster
    0   adf1                                      0          0          0
    1   adf1                                      0          1         -1
    2   adf1                                      0          2         -1
    3   adf1                                      0          3         -1
    4   adf1                                      0          4         -1
    5   adf1                                      0          5         -1
    6   adf1                                      1          0          1
    7   adf1                                      1          1         -1
    8   adf1                                      1          2         -1
    9   adf1                                      1          3         -1
   10   adf1                                      1          4         -1
   11   adf1                                      1          5         -1
 ==============================================================================


May use up to 11697MB of RAM as shared memory on node 0
May use up to 11718MB of RAM as shared memory on node 1

 *******************************************************************************
 *                                                                             *
 *  --------------------------------                                           *
 *   Amsterdam Modeling Suite (AMS)              2021.102                      *
 *  --------------------------------                                           *
 *                                               r95042 2021-06-07             *
 *                                                                             *
 *                                                                             *
 *                              =================                              *
 *                              |               |                              *
 *                              |     A M S     |                              *
 *                              |               |                              *
 *                              =================                              *
 *                                                                             *
 *                                                                             *
 *   Online information and documentation:  https://www.scm.com/support/       *
 *   E-mail:  support@scm.com   info@scm.com                                   *
 *                                                                             *
 *   Scientific publications using AMS results must be properly referenced     *
 *   See the User Manuals (or the web site) for recommended citations          *
 *   The terms and conditions of the End User License Agreement apply to       *
 *   the use of AMS, https://www.scm.com/license-terms/                        *
 *                                                                             *
 **********************  x86_64_linux_intel / intelmpi  ************************
 
 Licensed to: Dr. Miroslav Ilias / Matej Bel University, Department Chemistry, Fac. Natural Sciences / Banska Bystrica / SLOVAKIA
 SCM User ID: u17848
  
 AMS 2021.102  RunTime: Sep05-2021 22:54:27  ShM Nodes: 2  Procs: 12

 AMS jobname: ams
 AMS jobid  : 793175684

 Start   directory: /home/milias/Work/projects/open-collection/theoretical_chemistry/projects/nmr_diplomovky/derivaty_markerov/derivative_1/ams/srzora/tmp.milias.8838.0.noindex/
 Results directory: /home/milias/Work/projects/open-collection/theoretical_chemistry/projects/nmr_diplomovky/derivaty_markerov/derivative_1/ams/srzora/der1.geopt_pbe0_srzora_gnuc_tzp_good_cosmo-chcl3.results/
 Scratch directory: /tmp/amstmp_ams_kid0.793175684/


 Communication costs MPI_COMM_WORLD:      1.611 usec per message,   0.0291 usec per 8-byte item
 Communication costs for intra-node:      1.638 usec per message,   0.0131 usec per 8-byte item

 RNG seed: 2049465053 1355301781 -853814824 1092763983 -1626052275 1375483790 2129709366 823856610



                     *************************************************************************
                     *  ADF 2021.102  RunTime: Sep05-2021 22:54:27  ShM Nodes: 2  Procs: 12  *
                     *************************************************************************
  
       ***************************
       *  GEOMETRY OPTIMIZATION  *
       ***************************

Optimization Method                    Quasi Newton
Optimization Coordinates               Delocalized Coordinates
Optimize lattice                       F
 
 ------------------------------------------------------
 Convergence criteria (Hartree,Angstrom)
 ------------------------------------------------------
 Maximum gradient               0.001000000000
 Maximum rms gradient           0.000666666667
 Maximum step allowed           0.010000000000
 Maximum rms step allowed       0.006666666667
 Maximum energy change allowe   0.000430000000
 Maximum stress energy allowe   0.000500000000
 
Initial model Hessian                  Automatic Hessian
 
------------------------------------
Quasi-Newton Optimizer Parameters
------------------------------------
Hessian Update Method                  BFGS
Maximum number of steps                  258
First GDIIS cycle                          0
Maximum GDIIS vectors                      0
Trust radius (bohr)                        0.200000
Trust radius varies                        T
Constraints converged at all steps         T
Use projector                              T
 
 Rigid motions settings for: old optimizer
 Atomic rotations (x,y,z):     T T T
 Atomic translations (x,y,z):  T T T
 Tolerance:                   1.000000000000000E-006
 
--------
Geometry
--------
Formula: C12H26NO2PS
Atoms
  Index Symbol   x (angstrom)   y (angstrom)   z (angstrom)
      1      S     3.20657201     1.65543354     1.08963456
      2      P     2.21168133     0.60160721    -0.49921371
      3      O     0.81896218     1.42520250    -0.77210059
      4      O     1.46288152    -0.60508561     0.34005787
      5      C    -0.29128407     0.94618008     0.04099996
      6      C     0.01744038    -0.56930670     0.18499338
      7      C    -0.28059145     1.68779580     1.36747575
      8      C    -1.56275598     1.24886338    -0.72361865
      9      C    -0.33346854    -1.36956961    -1.05972874
     10      C    -0.58794883    -1.20963356     1.41656394
     11      H    -1.17852368     1.45628943     1.94233492
     12      H     0.58834077     1.43351627     1.97585609
     13      H    -0.26536087     2.76101258     1.17434338
     14      H    -1.51916618     0.86411342    -1.74139358
     15      H    -2.42186069     0.80518497    -0.21598684
     16      H    -1.71692705     2.32792568    -0.76731762
     17      H    -1.41389205    -1.47004750    -1.17096166
     18      H     0.06720751    -0.90490545    -1.96257922
     19      H     0.09490098    -2.36840309    -0.96738294
     20      H    -1.67664348    -1.12869683     1.38585131
     21      H    -0.32927050    -2.26903638     1.44340150
     22      H    -0.22617184    -0.74230180     2.33098642
     23      C     4.84304123     1.77341624     0.29272090
     24      C     5.74335573     0.60308098     0.64783647
     25      N     7.05885768     0.73617894     0.04812160
     26      C     7.85774480     1.79572571     0.67307233
     27      C     8.28238594     2.88278845    -0.29892490
     28      C     8.97842071    -0.52313447    -0.89751843
     29      C     7.75779642    -0.54158481     0.00198709
     30      H     4.70660108     1.83643165    -0.78891616
     31      H     5.26034468     2.72290454     0.62986112
     32      H     5.28300881    -0.31186148     0.26517313
     33      H     5.78885805     0.49956166     1.74619723
     34      H     8.05393386    -0.86941508     1.01495557
     35      H     7.05352093    -1.28767359    -0.37445153
     36      H     8.70342541    -0.23731532    -1.91503625
     37      H     9.43295834    -1.51572713    -0.92763754
     38      H     9.73856283     0.17522811    -0.54126166
     39      H     8.74530396     1.35706031     1.14494932
     40      H     7.28484780     2.24674814     1.49033790
     41      H     8.88251278     2.46884860    -1.11132464
     42      H     8.87593458     3.64586456     0.21184930
     43      H     7.41008413     3.36782984    -0.74252040
 
Total System Charge             0.00000
Bonding info available!
 
 
----------------
ADF Engine Input
----------------
 
 Basis
 Type TZP
 Core None
 End
 XC
 Hybrid PBE0
 End
 NumericalQuality Good
 NuclearModel Gaussian
 

 Title: *** (NO TITLE) ***

 Using automatic Hessian for delocalized coordinates.
 *** GOStep1 ***



 ======================
 RI Hartree-Fock Scheme
 ======================
  
 Fit Set Quality     : GOOD
 Integration Quality : GOOD
 Threshold Quality   : GOOD
 Response Quality    : DEFAULT
 Is Range Separated  :  F
 
 RIHartreeFock Dependency: number of modified vectors:          32
  
 Hartree-Fock exchange energy:   -142.536047621381     
  pauli hf:                              4.020802748740202        109.4116          2523.09         10556.62
  elstat hf:                            -4.278426420545351       -116.4219         -2684.75        -11233.01

 Energy gradients wrt nuclear displacements
 ==========================================

     Atom      Cartesian (a.u./angstrom)
                 X         Y         Z
 ----------------------------------------
     1 S     0.000929  0.000990  0.000735
     2 P    -0.003152 -0.002317 -0.001629
     3 O     0.007024  0.001716 -0.002481
     4 O     0.007866  0.001897 -0.000236
     5 C    -0.006519 -0.002044  0.004208
     6 C    -0.008867 -0.001377 -0.001032
     7 C     0.000721  0.000123 -0.000652
     8 C     0.000192 -0.000302 -0.000115
     9 C     0.000836  0.000453  0.000102
    10 C     0.000226  0.000448  0.000065
    11 H     0.000694  0.000006 -0.000574
    12 H    -0.000237 -0.000412  0.000708
    13 H    -0.000809  0.000415  0.000088
    14 H    -0.000305 -0.000654 -0.000111
    15 H     0.000768  0.000087 -0.000200
    16 H    -0.000176  0.000282  0.000529
    17 H     0.000664  0.000283  0.000461
    18 H    -0.000208 -0.000088 -0.000514
    19 H    -0.000373 -0.000422  0.000106
    20 H     0.000784  0.000172 -0.000132
    21 H    -0.000297 -0.000341 -0.000441
    22 H    -0.000487  0.000473  0.000523
    23 C     0.002946  0.001283  0.000081
    24 C    -0.000939 -0.001180  0.001240
    25 N    -0.002102  0.001121 -0.001949
    26 C     0.001280  0.001688  0.002109
    27 C    -0.000117 -0.000253 -0.000044
    28 C     0.000295  0.000345  0.000587
    29 C     0.000732 -0.003011  0.000620
    30 H    -0.001094  0.000360  0.000113
    31 H    -0.000437 -0.000279  0.000198
    32 H     0.000351 -0.000595 -0.000232
    33 H     0.000560  0.000338 -0.000200
    34 H    -0.000230  0.000664 -0.000602
    35 H     0.000035 -0.000177  0.000096
    36 H     0.000199 -0.000119 -0.000588
    37 H    -0.000366 -0.000169  0.000014
    38 H    -0.000062  0.000197  0.000068
    39 H    -0.000501  0.000089 -0.000571
    40 H     0.000143  0.000066 -0.000496
    41 H     0.000785 -0.000290 -0.000101
    42 H    -0.000148 -0.000136 -0.000053
    43 H    -0.000602  0.000670  0.000304
 ----------------------------------------
 Mulliken charges used for AMS results%charges...
 
----------------------------------------------------------------------
Geometry Convergence after Step   1       (Hartree/Angstrom,Angstrom)
----------------------------------------------------------------------
current energy                              -10.53580673 Hartree
energy change                     -10.53580673     0.00043000    F
constrained gradient max            0.00886992     0.00100000    F
constrained gradient rms            0.00164595     0.00066667    F
gradient max                        0.00886992
gradient rms                        0.00164595
cart. step max                      0.03013154     0.01000000    F
cart. step rms                      0.01091502     0.00666667    F
 
 
--------
Geometry
--------
Formula: C12H26NO2PS
Atoms
  Index Symbol   x (angstrom)   y (angstrom)   z (angstrom)
      1      S     3.19523015     1.65722319     1.08232934
      2      P     2.20962665     0.60769515    -0.51315259
      3      O     0.81217770     1.42516882    -0.78377327
      4      O     1.46619281    -0.60843767     0.31880030
      5      C    -0.28592804     0.94670037     0.03906096
      6      C     0.02359939    -0.56954680     0.17535877
      7      C    -0.25811392     1.68476655     1.36745075
      8      C    -1.56450384     1.25603345    -0.71154156
      9      C    -0.33937948    -1.36408440    -1.06986820
     10      C    -0.56925713    -1.21768348     1.40923211
     11      H    -1.15001092     1.45678495     1.95392627
     12      H     0.61847230     1.42644152     1.96269741
     13      H    -0.23813998     2.75788345     1.17540351
     14      H    -1.53072267     0.87593543    -1.73124681
     15      H    -2.42165158     0.81434210    -0.19801041
     16      H    -1.71438141     2.33566648    -0.75178175
     17      H    -1.42073327    -1.46756551    -1.17301011
     18      H     0.05284266    -0.89271262    -1.97273125
     19      H     0.09402976    -2.36147410    -0.98751051
     20      H    -1.65883150    -1.13888618     1.39188583
     21      H    -0.30748358    -2.27634402     1.42868231
     22      H    -0.19634146    -0.75542700     2.32144519
     23      C     4.83271256     1.76886397     0.28710716
     24      C     5.73582514     0.60576285     0.65771273
     25      N     7.05405028     0.73429613     0.06259635
     26      C     7.85191139     1.79909969     0.67694421
     27      C     8.27403611     2.87670774    -0.30673995
     28      C     8.97039130    -0.52278248    -0.88777015
     29      C     7.75479209    -0.54113718     0.01850557
     30      H     4.70253215     1.81804918    -0.79599644
     31      H     5.24820559     2.72308919     0.61357371
     32      H     5.27741398    -0.31259869     0.28167601
     33      H     5.77462652     0.51152668     1.75728296
     34      H     8.05576769    -0.86771819     1.03095558
     35      H     7.04987154    -1.28855513    -0.35394703
     36      H     8.68798668    -0.23766785    -1.90317103
     37      H     9.42714273    -1.51428845    -0.92002747
     38      H     9.73175131     0.17697730    -0.53707006
     39      H     8.74059092     1.36637645     1.15306546
     40      H     7.27895887     2.25687925     1.49072084
     41      H     8.87299039     2.45504676    -1.11556667
     42      H     8.86656933     3.64700866     0.19451425
     43      H     7.40080200     3.35367861    -0.75632634
 
Total System Charge             0.00000
Bonding info available!
 
 *** GOStep2 ***



 ======================
 RI Hartree-Fock Scheme
 ======================
  
 Fit Set Quality     : GOOD
 Integration Quality : GOOD
 Threshold Quality   : GOOD
 Response Quality    : DEFAULT
 Is Range Separated  :  F
 
 RIHartreeFock Dependency: number of modified vectors:          32
  
 Hartree-Fock exchange energy:   -142.540590000195     
  pauli hf:                              4.008231349495880        109.0695          2515.20         10523.61
  elstat hf:                            -4.281554963962407       -116.5070         -2686.72        -11241.22

 Energy gradients wrt nuclear displacements
 ==========================================

     Atom      Cartesian (a.u./angstrom)
                 X         Y         Z
 ----------------------------------------
     1 S    -0.000274  0.000935  0.001926
     2 P    -0.002799 -0.001750 -0.001515
     3 O     0.003042  0.001307 -0.001607
     4 O     0.004586  0.000452  0.000792
     5 C    -0.003148 -0.001586  0.002844
     6 C    -0.004694  0.000266 -0.001199
     7 C     0.001013  0.000262 -0.000786
     8 C     0.000770  0.000407 -0.000530
     9 C     0.000759  0.000289  0.000444
    10 C     0.001232 -0.000221 -0.000090
    11 H     0.000043  0.000047 -0.000118
    12 H     0.000127 -0.000085 -0.000024
    13 H    -0.000358  0.000075  0.000025
    14 H    -0.000157 -0.000172  0.000053
    15 H     0.000234 -0.000054  0.000048
    16 H    -0.000172  0.000013  0.000165
    17 H     0.000111  0.000056  0.000148
    18 H    -0.000079 -0.000055 -0.000059
    19 H    -0.000195 -0.000143  0.000060
    20 H     0.000197  0.000138 -0.000156
    21 H    -0.000222 -0.000119 -0.000073
    22 H    -0.000245  0.000047  0.000048
    23 C     0.000790 -0.000403 -0.000593
    24 C    -0.001033 -0.000007  0.000581
    25 N    -0.000810  0.000428 -0.001548
    26 C     0.001246  0.001053  0.001363
    27 C    -0.000282 -0.000432 -0.000284
    28 C    -0.000044  0.000262  0.000249
    29 C     0.001151 -0.001672  0.000557
    30 H    -0.000208  0.000177  0.000108
    31 H    -0.000415 -0.000225  0.000243
    32 H    -0.000001  0.000054 -0.000120
    33 H     0.000183  0.000137 -0.000088
    34 H    -0.000164  0.000239 -0.000214
    35 H    -0.000037  0.000154 -0.000038
    36 H     0.000112 -0.000070 -0.000216
    37 H    -0.000120 -0.000077 -0.000016
    38 H    -0.000073  0.000079 -0.000009
    39 H    -0.000216  0.000099 -0.000257
    40 H     0.000070 -0.000064 -0.000241
    41 H     0.000248 -0.000064 -0.000016
    42 H    -0.000036 -0.000037  0.000040
    43 H    -0.000133  0.000256  0.000105
 ----------------------------------------
 Mulliken charges used for AMS results%charges...

 dE(predicted):    -0.83247E-04, dE(actual):    -0.11036E-03, Trust radius:    0.200000, all in a.u.
 
----------------------------------------------------------------------
Geometry Convergence after Step   2       (Hartree/Angstrom,Angstrom)
----------------------------------------------------------------------
current energy                              -10.53591709 Hartree
energy change                      -0.00011036     0.00043000    T
constrained gradient max            0.00469660     0.00100000    F
constrained gradient rms            0.00096224     0.00066667    F
gradient max                        0.00469660
gradient rms                        0.00096224
cart. step max                      0.02501137     0.01000000    F
cart. step rms                      0.01004888     0.00666667    F
 
 
--------
Geometry
--------
Formula: C12H26NO2PS
Atoms
  Index Symbol   x (angstrom)   y (angstrom)   z (angstrom)
      1      S     3.20128648     1.67202810     1.08340867
      2      P     2.20783167     0.62788096    -0.50832898
      3      O     0.80427827     1.43911675    -0.77206528
      4      O     1.46716147    -0.59800240     0.31416746
      5      C    -0.29015022     0.94941056     0.04279499
      6      C     0.02842614    -0.56563508     0.17130585
      7      C    -0.27584360     1.67514631     1.37873175
      8      C    -1.56914329     1.25538958    -0.70931291
      9      C    -0.33150521    -1.35435344    -1.07920539
     10      C    -0.56335766    -1.22319126     1.40131510
     11      H    -1.17109676     1.43938382     1.95754185
     12      H     0.59789776     1.41508567     1.97710359
     13      H    -0.25586421     2.74972415     1.19589481
     14      H    -1.52797557     0.88378242    -1.73178386
     15      H    -2.42680924     0.80574287    -0.20296398
     16      H    -1.72421553     2.33436478    -0.74414476
     17      H    -1.41217502    -1.46639703    -1.18354784
     18      H     0.05723572    -0.87279981    -1.97807366
     19      H     0.11153674    -2.34802973    -1.00480934
     20      H    -1.65381187    -1.15212996     1.38517295
     21      H    -0.29326118    -2.27971181     1.41690751
     22      H    -0.19185858    -0.76328728     2.31517289
     23      C     4.83767542     1.77148185     0.28511979
     24      C     5.73963148     0.61226665     0.67040815
     25      N     7.05758342     0.73257281     0.07442614
     26      C     7.85740738     1.80195359     0.67451263
     27      C     8.27651363     2.87002270    -0.32107501
     28      C     8.96297236    -0.53091124    -0.88589872
     29      C     7.75552890    -0.54272510     0.03142528
     30      H     4.70920933     1.80462036    -0.79884524
     31      H     5.25667014     2.72947178     0.59670702
     32      H     5.27958308    -0.30929842     0.30469894
     33      H     5.77615926     0.52964677     1.77110991
     34      H     8.06468744    -0.86666853     1.04273779
     35      H     7.04643185    -1.29061683    -0.33210400
     36      H     8.67065903    -0.24764508    -1.89875652
     37      H     9.41797259    -1.52315458    -0.91961577
     38      H     9.72940703     0.16806058    -0.54487962
     39      H     8.74769970     1.37400848     1.15285704
     40      H     7.28726348     2.26771118     1.48610788
     41      H     8.87210120     2.44014715    -1.12768527
     42      H     8.87005355     3.64649334     0.16950287
     43      H     7.40182464     3.34013857    -0.77434877
 
Total System Charge             0.00000
Bonding info available!
 
 *** GOStep3 ***



 ======================
 RI Hartree-Fock Scheme
 ======================
  
 Fit Set Quality     : GOOD
 Integration Quality : GOOD
 Threshold Quality   : GOOD
 Response Quality    : DEFAULT
 Is Range Separated  :  F
 
 RIHartreeFock Dependency: number of modified vectors:          32
  
 Hartree-Fock exchange energy:   -142.543409703463     
  pauli hf:                              4.012571334198434        109.1876          2517.93         10535.00
  elstat hf:                            -4.283428610111066       -116.5580         -2687.89        -11246.14

 Energy gradients wrt nuclear displacements
 ==========================================

     Atom      Cartesian (a.u./angstrom)
                 X         Y         Z
 ----------------------------------------
     1 S     0.000747  0.000696  0.001137
     2 P    -0.001507 -0.000286  0.000171
     3 O     0.000218 -0.000485 -0.001267
     4 O     0.000392 -0.000229 -0.000127
     5 C     0.000072 -0.000256  0.000661
     6 C    -0.000439  0.000740 -0.000326
     7 C    -0.000140 -0.000590 -0.000151
     8 C     0.000650  0.000338 -0.000151
     9 C     0.000392  0.000332  0.000346
    10 C     0.000683  0.000011 -0.000151
    11 H    -0.000419 -0.000054  0.000377
    12 H    -0.000239  0.000093 -0.000290
    13 H     0.000113 -0.000291 -0.000083
    14 H     0.000073  0.000120  0.000140
    15 H    -0.000346 -0.000136  0.000153
    16 H    -0.000017 -0.000222 -0.000106
    17 H    -0.000340 -0.000111 -0.000117
    18 H    -0.000012 -0.000017  0.000254
    19 H    -0.000012  0.000130  0.000046
    20 H    -0.000407 -0.000018  0.000064
    21 H    -0.000018  0.000186  0.000139
    22 H     0.000073 -0.000033 -0.000224
    23 C    -0.000120 -0.000779 -0.000381
    24 C    -0.000560  0.000604  0.000117
    25 N     0.000353 -0.000152 -0.000679
    26 C     0.000443  0.000394  0.000172
    27 C    -0.000233 -0.000244 -0.000190
    28 C    -0.000247  0.000036 -0.000046
    29 C     0.000642 -0.000213  0.000216
    30 H     0.000461  0.000055  0.000130
    31 H     0.000065  0.000010  0.000058
    32 H    -0.000121  0.000282 -0.000028
    33 H    -0.000128 -0.000044 -0.000002
    34 H    -0.000061 -0.000089  0.000090
    35 H    -0.000071  0.000223 -0.000114
    36 H    -0.000013 -0.000016  0.000145
    37 H     0.000110  0.000021 -0.000024
    38 H    -0.000029 -0.000065 -0.000081
    39 H    -0.000013  0.000068  0.000054
    40 H    -0.000070 -0.000082  0.000003
    41 H    -0.000241  0.000102  0.000070
    42 H     0.000093  0.000125  0.000035
    43 H     0.000223 -0.000155 -0.000039
 ----------------------------------------
 Mulliken charges used for AMS results%charges...

 dE(predicted):    -0.43416E-04, dE(actual):    -0.27389E-04, Trust radius:    0.200000, all in a.u.
 
----------------------------------------------------------------------
Geometry Convergence after Step   3       (Hartree/Angstrom,Angstrom)
----------------------------------------------------------------------
current energy                              -10.53594448 Hartree
energy change                      -0.00002739     0.00043000    T
constrained gradient max            0.00150671     0.00100000    F
constrained gradient rms            0.00034306     0.00066667    T
gradient max                        0.00150671
gradient rms                        0.00034306
cart. step max                      0.01386391     0.01000000    F
cart. step rms                      0.00447865     0.00666667    T
 
 
--------
Geometry
--------
Formula: C12H26NO2PS
Atoms
  Index Symbol   x (angstrom)   y (angstrom)   z (angstrom)
      1      S     3.19883174     1.66682573     1.07483901
      2      P     2.20781158     0.62450519    -0.51837922
      3      O     0.80401253     1.43763984    -0.77625552
      4      O     1.46700092    -0.60127763     0.30482596
      5      C    -0.28771611     0.94953744     0.04206361
      6      C     0.02823552    -0.56665909     0.16858154
      7      C    -0.26455570     1.67666813     1.37748298
      8      C    -1.57057387     1.25721371    -0.70312862
      9      C    -0.33884850    -1.35439454    -1.08091836
     10      C    -0.56127650    -1.22357862     1.40032377
     11      H    -1.15723285     1.44320155     1.96072753
     12      H     0.61159644     1.41510902     1.97194975
     13      H    -0.24325554     2.75122101     1.19394664
     14      H    -1.53584298     0.88504304    -1.72572032
     15      H    -2.42600379     0.80931350    -0.19182080
     16      H    -1.72383349     2.33655113    -0.73744844
     17      H    -1.42007751    -1.46417618    -1.18018224
     18      H     0.04666355    -0.87347336    -1.98162572
     19      H     0.10256828    -2.34903261    -1.00891023
     20      H    -1.65145280    -1.15012722     1.38756066
     21      H    -0.29342021    -2.28077473     1.41404657
     22      H    -0.18598352    -0.76534789     2.31357962
     23      C     4.83598291     1.76726876     0.27903688
     24      C     5.73860290     0.60971974     0.66874340
     25      N     7.05672460     0.73184686     0.07484650
     26      C     7.85336349     1.80284532     0.67548128
     27      C     8.27308858     2.87203513    -0.31878318
     28      C     8.96611130    -0.52908244    -0.88098257
     29      C     7.75655272    -0.54212572     0.03365584
     30      H     4.70781901     1.79681076    -0.80516876
     31      H     5.25331293     2.72682911     0.58806892
     32      H     5.28122182    -0.31389570     0.30463456
     33      H     5.77380133     0.52991746     1.76971040
     34      H     8.06491939    -0.86436565     1.04575982
     35      H     7.04975934    -1.29220865    -0.32995098
     36      H     8.67575539    -0.24705012    -1.89478781
     37      H     9.42260455    -1.52068592    -0.91271208
     38      H     9.73066052     0.17133566    -0.53856008
     39      H     8.74346406     1.37639559     1.15562265
     40      H     7.28114141     2.26793526     1.48603999
     41      H     8.87155968     2.44344839    -1.12405588
     42      H     8.86399031     3.64934237     0.17349231
     43      H     7.39853780     3.34079053    -0.77394339
 
Total System Charge             0.00000
Bonding info available!
 
 *** GOStep4 ***



 ======================
 RI Hartree-Fock Scheme
 ======================
  
 Fit Set Quality     : GOOD
 Integration Quality : GOOD
 Threshold Quality   : GOOD
 Response Quality    : DEFAULT
 Is Range Separated  :  F
 
 RIHartreeFock Dependency: number of modified vectors:          32
  
 Hartree-Fock exchange energy:   -142.543940728692     
  pauli hf:                              4.011405499846113        109.1559          2517.20         10531.94
  elstat hf:                            -4.283813043859318       -116.5685         -2688.13        -11247.15

 Energy gradients wrt nuclear displacements
 ==========================================

     Atom      Cartesian (a.u./angstrom)
                 X         Y         Z
 ----------------------------------------
     1 S     0.000297  0.000479  0.001058
     2 P    -0.000108 -0.000388 -0.000844
     3 O     0.000039 -0.000394  0.000107
     4 O    -0.000182  0.000380 -0.000121
     5 C     0.000166 -0.000234  0.000236
     6 C    -0.000100  0.000214 -0.000099
     7 C     0.000108 -0.000082 -0.000254
     8 C     0.000143 -0.000049  0.000059
     9 C     0.000185  0.000090  0.000223
    10 C     0.000067  0.000001 -0.000116
    11 H    -0.000153 -0.000038  0.000088
    12 H    -0.000021  0.000104 -0.000142
    13 H     0.000087 -0.000074  0.000018
    14 H     0.000058  0.000060  0.000060
    15 H    -0.000250 -0.000054  0.000040
    16 H     0.000043 -0.000121 -0.000057
    17 H    -0.000168 -0.000055 -0.000060
    18 H     0.000001 -0.000030  0.000122
    19 H     0.000001  0.000057 -0.000006
    20 H    -0.000246 -0.000054  0.000105
    21 H     0.000027  0.000121  0.000068
    22 H     0.000060 -0.000054 -0.000122
    23 C     0.000041 -0.000345 -0.000396
    24 C    -0.000243  0.000120  0.000168
    25 N     0.000177 -0.000066 -0.000191
    26 C     0.000003  0.000185 -0.000162
    27 C    -0.000047 -0.000010  0.000032
    28 C    -0.000137  0.000008  0.000003
    29 C     0.000060  0.000013  0.000021
    30 H     0.000205  0.000027  0.000040
    31 H    -0.000005  0.000139  0.000047
    32 H    -0.000007  0.000052 -0.000019
    33 H    -0.000036 -0.000034 -0.000009
    34 H    -0.000026 -0.000013  0.000028
    35 H    -0.000042  0.000051 -0.000037
    36 H    -0.000041 -0.000005  0.000116
    37 H     0.000081  0.000024  0.000007
    38 H     0.000016 -0.000032 -0.000043
    39 H    -0.000012  0.000005  0.000035
    40 H    -0.000051 -0.000027  0.000024
    41 H    -0.000163  0.000043  0.000033
    42 H     0.000064  0.000102 -0.000030
    43 H     0.000109 -0.000117 -0.000030
 ----------------------------------------
 Mulliken charges used for AMS results%charges...

 dE(predicted):    -0.97559E-05, dE(actual):    -0.13473E-04, Trust radius:    0.200000, all in a.u.
 
----------------------------------------------------------------------
Geometry Convergence after Step   4       (Hartree/Angstrom,Angstrom)
----------------------------------------------------------------------
current energy                              -10.53595796 Hartree
energy change                      -0.00001347     0.00043000    T
constrained gradient max            0.00106478     0.00100000    F
constrained gradient rms            0.00017933     0.00066667    T
gradient max                        0.00106478
gradient rms                        0.00017933
cart. step max                      0.00685999     0.01000000    T
cart. step rms                      0.00252223     0.00666667    T
 
 
--------
Geometry
--------
Formula: C12H26NO2PS
Atoms
  Index Symbol   x (angstrom)   y (angstrom)   z (angstrom)
      1      S     3.19844212     1.66611869     1.07070682
      2      P     2.20484972     0.62643480    -0.52158521
      3      O     0.80091558     1.44098351    -0.77507070
      4      O     1.46621088    -0.60124843     0.30095158
      5      C    -0.28955125     0.95032146     0.04315583
      6      C     0.02738677    -0.56637593     0.16689373
      7      C    -0.26543302     1.67532343     1.37997805
      8      C    -1.57365521     1.25858926    -0.69982272
      9      C    -0.34151780    -1.35270624    -1.08322849
     10      C    -0.56052113    -1.22527644     1.39845223
     11      H    -1.15744200     1.44032662     1.96333481
     12      H     0.61117897     1.41303409     1.97363426
     13      H    -0.24515453     2.75028782     1.19832988
     14      H    -1.54053305     0.88808547    -1.72314219
     15      H    -2.42754047     0.80901216    -0.18776760
     16      H    -1.72791780     2.33794169    -0.73172638
     17      H    -1.42279411    -1.46244619    -1.18049552
     18      H     0.04225639    -0.87081180    -1.98424959
     19      H     0.10006176    -2.34746003    -1.01304579
     20      H    -1.65051105    -1.15160044     1.38643616
     21      H    -0.29286975    -2.28263559     1.40998743
     22      H    -0.18470645    -0.76852243     2.31233573
     23      C     4.83575946     1.76580878     0.27545180
     24      C     5.73961152     0.60993895     0.66814195
     25      N     7.05787945     0.73174824     0.07485632
     26      C     7.85403481     1.80369478     0.67419030
     27      C     8.27504173     2.87124619    -0.32137421
     28      C     8.96957442    -0.52932481    -0.87671786
     29      C     7.75873754    -0.54169711     0.03636747
     30      H     4.70677977     1.79222614    -0.80880220
     31      H     5.25238258     2.72648652     0.58168223
     32      H     5.28339368    -0.31525215     0.30648985
     33      H     5.77468317     0.53316981     1.76933637
     34      H     8.06662604    -0.86159020     1.04935331
     35      H     7.05319170    -1.29343118    -0.32624740
     36      H     8.68075871    -0.24937314    -1.89160692
     37      H     9.42658745    -1.52075442    -0.90585208
     38      H     9.73307117     0.17224539    -0.53422291
     39      H     8.74374744     1.37793382     1.15566842
     40      H     7.28141151     2.27043942     1.48349671
     41      H     8.87484225     2.44146420    -1.12515242
     42      H     8.86529771     3.64904523     0.17073434
     43      H     7.40105457     3.33969422    -0.77816944
 
Total System Charge             0.00000
Bonding info available!
 
 *** GOStep5 ***



 ======================
 RI Hartree-Fock Scheme
 ======================
  
 Fit Set Quality     : GOOD
 Integration Quality : GOOD
 Threshold Quality   : GOOD
 Response Quality    : DEFAULT
 Is Range Separated  :  F
 
 RIHartreeFock Dependency: number of modified vectors:          32
  
 Hartree-Fock exchange energy:   -142.543624597131     
  pauli hf:                              4.014026717314891        109.2272          2518.84         10538.83
  elstat hf:                            -4.283531523979484       -116.5608         -2687.96        -11246.41

 Energy gradients wrt nuclear displacements
 ==========================================

     Atom      Cartesian (a.u./angstrom)
                 X         Y         Z
 ----------------------------------------
     1 S     0.000208  0.000322  0.000521
     2 P    -0.000437 -0.000364 -0.000458
     3 O    -0.000038  0.000077  0.000079
     4 O    -0.000031 -0.000079  0.000006
     5 C     0.000108 -0.000227  0.000016
     6 C     0.000066  0.000201 -0.000048
     7 C     0.000042  0.000028 -0.000147
     8 C    -0.000040 -0.000036  0.000064
     9 C     0.000071 -0.000048  0.000093
    10 C    -0.000054  0.000008 -0.000033
    11 H     0.000021 -0.000006 -0.000049
    12 H     0.000013  0.000042  0.000006
    13 H     0.000023  0.000032  0.000026
    14 H     0.000007  0.000003 -0.000009
    15 H    -0.000020 -0.000003 -0.000014
    16 H     0.000002 -0.000008 -0.000027
    17 H     0.000004 -0.000024  0.000013
    18 H     0.000001 -0.000028  0.000012
    19 H     0.000003 -0.000020 -0.000004
    20 H     0.000000 -0.000015  0.000030
    21 H     0.000024  0.000009  0.000035
    22 H     0.000026 -0.000012  0.000018
    23 C     0.000046 -0.000093 -0.000063
    24 C    -0.000045  0.000105 -0.000026
    25 N     0.000028 -0.000089  0.000033
    26 C    -0.000039  0.000007 -0.000131
    27 C     0.000025  0.000034  0.000079
    28 C    -0.000035 -0.000012  0.000032
    29 C    -0.000018  0.000113 -0.000016
    30 H     0.000033  0.000023  0.000010
    31 H    -0.000028  0.000071  0.000013
    32 H     0.000008 -0.000038 -0.000006
    33 H     0.000024  0.000002 -0.000021
    34 H    -0.000005  0.000025 -0.000007
    35 H    -0.000007 -0.000013  0.000018
    36 H    -0.000023  0.000000  0.000033
    37 H     0.000034  0.000018  0.000016
    38 H     0.000020  0.000021  0.000001
    39 H     0.000007 -0.000007 -0.000014
    40 H     0.000009 -0.000002  0.000021
    41 H    -0.000030 -0.000009 -0.000026
    42 H     0.000000  0.000014 -0.000046
    43 H    -0.000003 -0.000020 -0.000030
 ----------------------------------------
 Mulliken charges used for AMS results%charges...

 dE(predicted):    -0.22554E-05, dE(actual):    -0.18771E-05, Trust radius:    0.200000, all in a.u.
 
---------------------------------------------------------
Geometry Convergence after Step   5       ** CONVERGED **
---------------------------------------------------------
current energy                              -10.53595983 Hartree
energy change                      -0.00000188     0.00043000    T
constrained gradient max            0.00052774     0.00100000    T
constrained gradient rms            0.00009810     0.00066667    T
gradient max                        0.00052774
gradient rms                        0.00009810
cart. step max                      0.00847410     0.01000000    T
cart. step rms                      0.00345489     0.00666667    T
 
Geometry optimization converged

Optimized geometry:
 
--------
Geometry
--------
Formula: C12H26NO2PS
Atoms
  Index Symbol   x (angstrom)   y (angstrom)   z (angstrom)
      1      S     3.19844212     1.66611869     1.07070682
      2      P     2.20484972     0.62643480    -0.52158521
      3      O     0.80091558     1.44098351    -0.77507070
      4      O     1.46621088    -0.60124843     0.30095158
      5      C    -0.28955125     0.95032146     0.04315583
      6      C     0.02738677    -0.56637593     0.16689373
      7      C    -0.26543302     1.67532343     1.37997805
      8      C    -1.57365521     1.25858926    -0.69982272
      9      C    -0.34151780    -1.35270624    -1.08322849
     10      C    -0.56052113    -1.22527644     1.39845223
     11      H    -1.15744200     1.44032662     1.96333481
     12      H     0.61117897     1.41303409     1.97363426
     13      H    -0.24515453     2.75028782     1.19832988
     14      H    -1.54053305     0.88808547    -1.72314219
     15      H    -2.42754047     0.80901216    -0.18776760
     16      H    -1.72791780     2.33794169    -0.73172638
     17      H    -1.42279411    -1.46244619    -1.18049552
     18      H     0.04225639    -0.87081180    -1.98424959
     19      H     0.10006176    -2.34746003    -1.01304579
     20      H    -1.65051105    -1.15160044     1.38643616
     21      H    -0.29286975    -2.28263559     1.40998743
     22      H    -0.18470645    -0.76852243     2.31233573
     23      C     4.83575946     1.76580878     0.27545180
     24      C     5.73961152     0.60993895     0.66814195
     25      N     7.05787945     0.73174824     0.07485632
     26      C     7.85403481     1.80369478     0.67419030
     27      C     8.27504173     2.87124619    -0.32137421
     28      C     8.96957442    -0.52932481    -0.87671786
     29      C     7.75873754    -0.54169711     0.03636747
     30      H     4.70677977     1.79222614    -0.80880220
     31      H     5.25238258     2.72648652     0.58168223
     32      H     5.28339368    -0.31525215     0.30648985
     33      H     5.77468317     0.53316981     1.76933637
     34      H     8.06662604    -0.86159020     1.04935331
     35      H     7.05319170    -1.29343118    -0.32624740
     36      H     8.68075871    -0.24937314    -1.89160692
     37      H     9.42658745    -1.52075442    -0.90585208
     38      H     9.73307117     0.17224539    -0.53422291
     39      H     8.74374744     1.37793382     1.15566842
     40      H     7.28141151     2.27043942     1.48349671
     41      H     8.87484225     2.44146420    -1.12515242
     42      H     8.86529771     3.64904523     0.17073434
     43      H     7.40105457     3.33969422    -0.77816944
 
Total System Charge             0.00000
Bonding info available!
 
Performing a single point calculation on the final geometry ...

 *** adf ***



 ===========================
 A T T A C H E D   F I L E S
 ===========================
  
 Restart/tmp/amstmp_ams_kid0.793175684/GOStep5.rkf*** GOStep5 ***



 ===============================
 M O D E L   P A R A M E T E R S
 ===============================
  
 DENSITY FUNCTIONAL POTENTIAL (scf)
    Hybrid:                            PBE0                                    == Not Default ==

 SPIN  (restricted / unrestr.)
    Molecule:                          Restricted                               
    Fragments:                         Restricted                               

 OTHER ASPECTS
    Relativistic Corrections:          scalar (ZORA,MAPA)                       

    Nuclear Charge Density Model:      Gaussian Charge Distributions            *** SPECIAL ***
    Core Treatment:                    Frozen Orbital(s)                        

    Hyperfine or Zeeman Interaction:   ---                                      



 ===============
 G E O M E T R Y  ***  3D  Molecule  ***
 ===============
  

 ATOMS
 =====                            X Y Z                    CHARGE
                                (Angstrom)             Nucl     +Core       At.Mass
                       --------------------------    ----------------       -------
    1  S               3.1984    1.6661    1.0707     16.00     16.00       31.9721
    2  P               2.2048    0.6264   -0.5216     15.00     15.00       30.9738
    3  O               0.8009    1.4410   -0.7751      8.00      8.00       15.9949
    4  O               1.4662   -0.6012    0.3010      8.00      8.00       15.9949
    5  C              -0.2896    0.9503    0.0432      6.00      6.00       12.0000
    6  C               0.0274   -0.5664    0.1669      6.00      6.00       12.0000
    7  C              -0.2654    1.6753    1.3800      6.00      6.00       12.0000
    8  C              -1.5737    1.2586   -0.6998      6.00      6.00       12.0000
    9  C              -0.3415   -1.3527   -1.0832      6.00      6.00       12.0000
   10  C              -0.5605   -1.2253    1.3985      6.00      6.00       12.0000
   11  H              -1.1574    1.4403    1.9633      1.00      1.00        1.0078
   12  H               0.6112    1.4130    1.9736      1.00      1.00        1.0078
   13  H              -0.2452    2.7503    1.1983      1.00      1.00        1.0078
   14  H              -1.5405    0.8881   -1.7231      1.00      1.00        1.0078
   15  H              -2.4275    0.8090   -0.1878      1.00      1.00        1.0078
   16  H              -1.7279    2.3379   -0.7317      1.00      1.00        1.0078
   17  H              -1.4228   -1.4624   -1.1805      1.00      1.00        1.0078
   18  H               0.0423   -0.8708   -1.9842      1.00      1.00        1.0078
   19  H               0.1001   -2.3475   -1.0130      1.00      1.00        1.0078
   20  H              -1.6505   -1.1516    1.3864      1.00      1.00        1.0078
   21  H              -0.2929   -2.2826    1.4100      1.00      1.00        1.0078
   22  H              -0.1847   -0.7685    2.3123      1.00      1.00        1.0078
   23  C               4.8358    1.7658    0.2755      6.00      6.00       12.0000
   24  C               5.7396    0.6099    0.6681      6.00      6.00       12.0000
   25  N               7.0579    0.7317    0.0749      7.00      7.00       14.0031
   26  C               7.8540    1.8037    0.6742      6.00      6.00       12.0000
   27  C               8.2750    2.8712   -0.3214      6.00      6.00       12.0000
   28  C               8.9696   -0.5293   -0.8767      6.00      6.00       12.0000
   29  C               7.7587   -0.5417    0.0364      6.00      6.00       12.0000
   30  H               4.7068    1.7922   -0.8088      1.00      1.00        1.0078
   31  H               5.2524    2.7265    0.5817      1.00      1.00        1.0078
   32  H               5.2834   -0.3153    0.3065      1.00      1.00        1.0078
   33  H               5.7747    0.5332    1.7693      1.00      1.00        1.0078
   34  H               8.0666   -0.8616    1.0494      1.00      1.00        1.0078
   35  H               7.0532   -1.2934   -0.3262      1.00      1.00        1.0078
   36  H               8.6808   -0.2494   -1.8916      1.00      1.00        1.0078
   37  H               9.4266   -1.5208   -0.9059      1.00      1.00        1.0078
   38  H               9.7331    0.1722   -0.5342      1.00      1.00        1.0078
   39  H               8.7437    1.3779    1.1557      1.00      1.00        1.0078
   40  H               7.2814    2.2704    1.4835      1.00      1.00        1.0078
   41  H               8.8748    2.4415   -1.1252      1.00      1.00        1.0078
   42  H               8.8653    3.6490    0.1707      1.00      1.00        1.0078
   43  H               7.4011    3.3397   -0.7782      1.00      1.00        1.0078


 FRAGMENTS
 =========                                     Atoms in this Fragment     Cart. coord.s (Angstrom)
                                               -------------------------------------------------------
    1  S                                                 1  S            3.1984    1.6661    1.0707
    2  P                                                 2  P            2.2048    0.6264   -0.5216
    3  O                                                 3  O            0.8009    1.4410   -0.7751
    4  O                                                 4  O            1.4662   -0.6012    0.3010
    5  C                                                 5  C           -0.2896    0.9503    0.0432
    6  C                                                 6  C            0.0274   -0.5664    0.1669
    7  C                                                 7  C           -0.2654    1.6753    1.3800
    8  C                                                 8  C           -1.5737    1.2586   -0.6998
    9  C                                                 9  C           -0.3415   -1.3527   -1.0832
   10  C                                                10  C           -0.5605   -1.2253    1.3985
   11  C                                                23  C            4.8358    1.7658    0.2755
   12  C                                                24  C            5.7396    0.6099    0.6681
   13  C                                                26  C            7.8540    1.8037    0.6742
   14  C                                                27  C            8.2750    2.8712   -0.3214
   15  C                                                28  C            8.9696   -0.5293   -0.8767
   16  C                                                29  C            7.7587   -0.5417    0.0364
   17  H                                                11  H           -1.1574    1.4403    1.9633
   18  H                                                12  H            0.6112    1.4130    1.9736
   19  H                                                13  H           -0.2452    2.7503    1.1983
   20  H                                                14  H           -1.5405    0.8881   -1.7231
   21  H                                                15  H           -2.4275    0.8090   -0.1878
   22  H                                                16  H           -1.7279    2.3379   -0.7317
   23  H                                                17  H           -1.4228   -1.4624   -1.1805
   24  H                                                18  H            0.0423   -0.8708   -1.9842
   25  H                                                19  H            0.1001   -2.3475   -1.0130
   26  H                                                20  H           -1.6505   -1.1516    1.3864
   27  H                                                21  H           -0.2929   -2.2826    1.4100
   28  H                                                22  H           -0.1847   -0.7685    2.3123
   29  H                                                30  H            4.7068    1.7922   -0.8088
   30  H                                                31  H            5.2524    2.7265    0.5817
   31  H                                                32  H            5.2834   -0.3153    0.3065
   32  H                                                33  H            5.7747    0.5332    1.7693
   33  H                                                34  H            8.0666   -0.8616    1.0494
   34  H                                                35  H            7.0532   -1.2934   -0.3262
   35  H                                                36  H            8.6808   -0.2494   -1.8916
   36  H                                                37  H            9.4266   -1.5208   -0.9059
   37  H                                                38  H            9.7331    0.1722   -0.5342
   38  H                                                39  H            8.7437    1.3779    1.1557
   39  H                                                40  H            7.2814    2.2704    1.4835
   40  H                                                41  H            8.8748    2.4415   -1.1252
   41  H                                                42  H            8.8653    3.6490    0.1707
   42  H                                                43  H            7.4011    3.3397   -0.7782
   43  N                                                25  N            7.0579    0.7317    0.0749



 =====================================
 S Y M M E T R Y ,   E L E C T R O N S
 =====================================
  
 Symmetry: NOSYM

 Irreducible Representations, including subspecies
 -------------------------------------------------
 A

 Symmetry is NOT used when fitting density


 Configuration of Valence Electrons
 ==================================
 ( determined in the SCF procedure )

 Total:   152

 Net Charge: 0 (Nuclei minus Electrons)

 Aufbau principle for MO occupations will be applied through SCF cycle no.     150
 Thereafter, the program will assign electrons to MOs that are spatially
 similar to the occupied MOs in a "reference" cycle ("KeepOrbitals").
 The reference cycle is always the PREVIOUS cycle: it will evolve with
 the SCF procedure.
1
 ***************************************************************************************************



                                      ****************************************
                                      *  B U I L D : (Fragments, Functions)  *
                                      ****************************************
  



 =======
 S F O s  ***  (Symmetrized Fragment Orbitals)  ***
 =======
  
 SFOs are linear combinations of (valence) Fragment Orbitals (FOs), such that the SFOs transform as the
 irreducible representations of the (molecular) symmetry group. Each SFO is therefore characterized by
 an irrep of the molecule and by a few (or only one) generating FOs.
 The SFOs constitute a symmetry-adapted basis for the Fock matrix. The MO eigenvector coefficients in
 this basis provide a direct interpretation of the MOs in terms of Frontier Orbital Theory.

 The SFOs are combined with auxiliary Core Functions (CFs) to ensure orthogonalization on the (frozen)
 Core Orbitals (COs). The Core-orthogonalized SFOs (CSFOs) constitute the true Fock basis.

 The FOs, and hence also the (C)SFOs are combinations of the elementary basis functions (BAS). The basis
 functions that participate in the description of the SFOs depend on the irrep. The indices of the
 involved functions are printed below for each irrep.
 (The complete list of primitive basis functions is printed in another section)

 Total nr. of (C)SFOs (summation over all irreps) :   495

 NOTE: a (C)SFO that is defined as a combination of more than one FO is usually NOT normalized.



                                       === A ===
 Nr. of SFOs :  495
 Cartesian basis functions that participate in this irrep (total number =   512) :
      1     2     3     4    11    12    13     5     8    14
     17    20     6     9    15    18    21     7    10    16
     19    22    23    24    25    26    27    28    29    30
     31    32    39    40    41    33    36    42    45    48
     34    37    43    46    49    35    38    44    47    50
     51    52    53    54    55    56    57    58    59    60
     61    62    65    68    63    66    69    64    67    70
     71    72    73    74    75    76    77    78    79    80
     81    82    85    88    83    86    89    84    87    90
     91    92    93    94    95    96    97    98    99   100
    101   102   105   108   103   106   109   104   107   110
    111   112   113   114   115   116   117   118   119   120
    121   122   125   128   123   126   129   124   127   130
    131   132   133   134   135   136   137   138   139   140
    141   142   145   148   143   146   149   144   147   150
    151   152   153   154   155   156   157   158   159   160
    161   162   165   168   163   166   169   164   167   170
    171   172   173   174   175   176   177   178   179   180
    181   182   185   188   183   186   189   184   187   190
    191   192   193   194   195   196   197   198   199   200
    201   202   205   208   203   206   209   204   207   210
    211   212   213   214   215   216   217   218   219   220
    221   222   225   228   223   226   229   224   227   230
    231   232   233   234   235   236   237   238   239   240
    241   242   245   248   243   246   249   244   247   250
    251   252   253   254   255   256   257   258   259   260
    261   262   265   268   263   266   269   264   267   270
    271   272   273   274   275   276   277   278   279   280
    281   282   285   288   283   286   289   284   287   290
    291   292   293   294   295   296   297   298   299   300
    301   302   305   308   303   306   309   304   307   310
    311   312   313   314   315   316   317   318   319   320
    321   322   325   328   323   326   329   324   327   330
    331   332   333   334   335   336   337   338   339   340
    341   342   343   344   345   346   347   348   349   350
    351   352   353   354   355   356   357   358   359   360
    361   362   363   364   365   366   367   368   369   370
    371   372   373   374   375   376   377   378   379   380
    381   382   383   384   385   386   387   388   389   390
    391   392   393   394   395   396   397   398   399   400
    401   402   403   404   405   406   407   408   409   410
    411   412   413   414   415   416   417   418   419   420
    421   422   423   424   425   426   427   428   429   430
    431   432   433   434   435   436   437   438   439   440
    441   442   443   444   445   446   447   448   449   450
    451   452   453   454   455   456   457   458   459   460
    461   462   463   464   465   466   467   468   469   470
    471   472   473   474   475   476   477   478   479   480
    481   482   483   484   485   486   487   488   489   490
    491   492   493   494   495   496   497   498   501   504
    499   502   505   500   503   506   507   508   509   510
    511   512

    SFO  (index         Fragment          Generating    Expansion in Fragment Orbitals
  indx  incl.CFs)   Occup   Orb.Energy   FragmentType  Coeff.   Orbital     on Fragment
 --------------------------------------------------------------------------------------
     1       1      2.000     -89.376 au  S             1.00      1 S               1
                        (   -2432.038 eV)
     2       2      2.000      -8.117 au  S             1.00      2 S               1
                        (    -220.875 eV)
     3       3      2.000      -0.714 au  S             1.00      3 S               1
                        (     -19.422 eV)
     4       4       --         0.229 au  S             1.00      4 S               1
                        (       6.231 eV)
     5       5       --         2.114 au  S             1.00      5 S               1
                        (      57.514 eV)
     6       6       --        12.772 au  S             1.00      6 S               1
                        (     347.549 eV)
     7       7       --       192.914 au  S             1.00      7 S               1
                        (    5249.469 eV)
     8       8      2.000      -5.999 au  S             1.00      1 P:x             1
                        (    -163.249 eV)
     9       9      1.333      -0.278 au  S             1.00      2 P:x             1
                        (      -7.578 eV)
    10      10       --         0.156 au  S             1.00      3 P:x             1
                        (       4.258 eV)
    11      11       --         1.281 au  S             1.00      4 P:x             1
                        (      34.854 eV)
    12      12       --        13.223 au  S             1.00      5 P:x             1
                        (     359.818 eV)
    13      13      2.000      -5.999 au  S             1.00      1 P:y             1
                        (    -163.249 eV)
    14      14      1.333      -0.278 au  S             1.00      2 P:y             1
                        (      -7.578 eV)
    15      15       --         0.156 au  S             1.00      3 P:y             1
                        (       4.258 eV)
    16      16       --         1.281 au  S             1.00      4 P:y             1
                        (      34.854 eV)
    17      17       --        13.223 au  S             1.00      5 P:y             1
                        (     359.818 eV)
    18      18      2.000      -5.999 au  S             1.00      1 P:z             1
                        (    -163.249 eV)
    19      19      1.333      -0.278 au  S             1.00      2 P:z             1
                        (      -7.578 eV)
    20      20       --         0.156 au  S             1.00      3 P:z             1
                        (       4.258 eV)
    21      21       --         1.281 au  S             1.00      4 P:z             1
                        (      34.854 eV)
    22      22       --        13.223 au  S             1.00      5 P:z             1
                        (     359.818 eV)
    23      23       --         0.493 au  S             1.00      1 D:z2            1
                        (      13.420 eV)
    24      24       --         0.493 au  S             1.00      1 D:x2-y2         1
                        (      13.420 eV)
    25      25       --         0.493 au  S             1.00      1 D:xy            1
                        (      13.420 eV)
    26      26       --         0.493 au  S             1.00      1 D:xz            1
                        (      13.420 eV)
    27      27       --         0.493 au  S             1.00      1 D:yz            1
                        (      13.420 eV)
    28      28      2.000     -77.495 au  P             1.00      1 S               2
                        (   -2108.752 eV)
    29      29      2.000      -6.709 au  P             1.00      2 S               2
                        (    -182.551 eV)
    30      30      2.000      -0.580 au  P             1.00      3 S               2
                        (     -15.778 eV)
    31      31       --         0.140 au  P             1.00      4 S               2
                        (       3.817 eV)
    32      32       --         1.380 au  P             1.00      5 S               2
                        (      37.549 eV)
    33      33       --         9.471 au  P             1.00      6 S               2
                        (     257.719 eV)
    34      34       --       159.701 au  P             1.00      7 S               2
                        (    4345.676 eV)
    35      35      2.000      -4.804 au  P             1.00      1 P:x             2
                        (    -130.726 eV)
    36      36      1.000      -0.208 au  P             1.00      2 P:x             2
                        (      -5.658 eV)
    37      37       --         0.107 au  P             1.00      3 P:x             2
                        (       2.910 eV)
    38      38       --         0.924 au  P             1.00      4 P:x             2
                        (      25.153 eV)
    39      39       --        10.501 au  P             1.00      5 P:x             2
                        (     285.747 eV)
    40      40      2.000      -4.804 au  P             1.00      1 P:y             2
                        (    -130.726 eV)
    41      41      1.000      -0.208 au  P             1.00      2 P:y             2
                        (      -5.658 eV)
    42      42       --         0.107 au  P             1.00      3 P:y             2
                        (       2.910 eV)
    43      43       --         0.924 au  P             1.00      4 P:y             2
                        (      25.153 eV)
    44      44       --        10.501 au  P             1.00      5 P:y             2
                        (     285.747 eV)
    45      45      2.000      -4.804 au  P             1.00      1 P:z             2
                        (    -130.726 eV)
    46      46      1.000      -0.208 au  P             1.00      2 P:z             2
                        (      -5.658 eV)
    47      47       --         0.107 au  P             1.00      3 P:z             2
                        (       2.910 eV)
    48      48       --         0.924 au  P             1.00      4 P:z             2
                        (      25.153 eV)
    49      49       --        10.501 au  P             1.00      5 P:z             2
                        (     285.747 eV)
    50      50       --         0.440 au  P             1.00      1 D:z2            2
                        (      11.981 eV)
    51      51       --         0.440 au  P             1.00      1 D:x2-y2         2
                        (      11.981 eV)
    52      52       --         0.440 au  P             1.00      1 D:xy            2
                        (      11.981 eV)
    53      53       --         0.440 au  P             1.00      1 D:xz            2
                        (      11.981 eV)
    54      54       --         0.440 au  P             1.00      1 D:yz            2
                        (      11.981 eV)
    55      55      2.000     -19.396 au  O             1.00      1 S               3
                        (    -527.802 eV)
    56      56      2.000      -0.999 au  O             1.00      2 S               3
                        (     -27.198 eV)
    57      57       --         0.856 au  O             1.00      3 S               3
                        (      23.286 eV)
    58      58       --        13.669 au  O             1.00      4 S               3
                        (     371.949 eV)
    59      59       --       122.369 au  O             1.00      5 S               3
                        (    3329.823 eV)
    60      60      1.333      -0.366 au  O             1.00      1 P:x             3
                        (      -9.955 eV)
    61      61       --         0.397 au  O             1.00      2 P:x             3
                        (      10.811 eV)
    62      62       --         3.979 au  O             1.00      3 P:x             3
                        (     108.277 eV)
    63      63      1.333      -0.366 au  O             1.00      1 P:y             3
                        (      -9.955 eV)
    64      64       --         0.397 au  O             1.00      2 P:y             3
                        (      10.811 eV)
    65      65       --         3.979 au  O             1.00      3 P:y             3
                        (     108.277 eV)
    66      66      1.333      -0.366 au  O             1.00      1 P:z             3
                        (      -9.955 eV)
    67      67       --         0.397 au  O             1.00      2 P:z             3
                        (      10.811 eV)
    68      68       --         3.979 au  O             1.00      3 P:z             3
                        (     108.277 eV)
    69      69       --         1.128 au  O             1.00      1 D:z2            3
                        (      30.706 eV)
    70      70       --         1.128 au  O             1.00      1 D:x2-y2         3
                        (      30.706 eV)
    71      71       --         1.128 au  O             1.00      1 D:xy            3
                        (      30.706 eV)
    72      72       --         1.128 au  O             1.00      1 D:xz            3
                        (      30.706 eV)
    73      73       --         1.128 au  O             1.00      1 D:yz            3
                        (      30.706 eV)
    74      74      2.000     -19.396 au  O             1.00      1 S               4
                        (    -527.802 eV)
    75      75      2.000      -0.999 au  O             1.00      2 S               4
                        (     -27.198 eV)
    76      76       --         0.856 au  O             1.00      3 S               4
                        (      23.286 eV)
    77      77       --        13.669 au  O             1.00      4 S               4
                        (     371.949 eV)
    78      78       --       122.369 au  O             1.00      5 S               4
                        (    3329.823 eV)
    79      79      1.333      -0.366 au  O             1.00      1 P:x             4
                        (      -9.955 eV)
    80      80       --         0.397 au  O             1.00      2 P:x             4
                        (      10.811 eV)
    81      81       --         3.979 au  O             1.00      3 P:x             4
                        (     108.277 eV)
    82      82      1.333      -0.366 au  O             1.00      1 P:y             4
                        (      -9.955 eV)
    83      83       --         0.397 au  O             1.00      2 P:y             4
                        (      10.811 eV)
    84      84       --         3.979 au  O             1.00      3 P:y             4
                        (     108.277 eV)
    85      85      1.333      -0.366 au  O             1.00      1 P:z             4
                        (      -9.955 eV)
    86      86       --         0.397 au  O             1.00      2 P:z             4
                        (      10.811 eV)
    87      87       --         3.979 au  O             1.00      3 P:z             4
                        (     108.277 eV)
    88      88       --         1.128 au  O             1.00      1 D:z2            4
                        (      30.706 eV)
    89      89       --         1.128 au  O             1.00      1 D:x2-y2         4
                        (      30.706 eV)
    90      90       --         1.128 au  O             1.00      1 D:xy            4
                        (      30.706 eV)
    91      91       --         1.128 au  O             1.00      1 D:xz            4
                        (      30.706 eV)
    92      92       --         1.128 au  O             1.00      1 D:yz            4
                        (      30.706 eV)
    93      93      2.000     -10.410 au  C             1.00      1 S               5
                        (    -283.269 eV)
    94      94      2.000      -0.583 au  C             1.00      2 S               5
                        (     -15.871 eV)
    95      95       --         0.414 au  C             1.00      3 S               5
                        (      11.266 eV)
    96      96       --         5.548 au  C             1.00      4 S               5
                        (     150.972 eV)
    97      97       --        50.361 au  C             1.00      5 S               5
                        (    1370.394 eV)
    98      98      0.667      -0.185 au  C             1.00      1 P:x             5
                        (      -5.048 eV)
    99      99       --         0.203 au  C             1.00      2 P:x             5
                        (       5.519 eV)
   100     100       --         2.124 au  C             1.00      3 P:x             5
                        (      57.805 eV)
   101     101      0.667      -0.185 au  C             1.00      1 P:y             5
                        (      -5.048 eV)
   102     102       --         0.203 au  C             1.00      2 P:y             5
                        (       5.519 eV)
   103     103       --         2.124 au  C             1.00      3 P:y             5
                        (      57.805 eV)
   104     104      0.667      -0.185 au  C             1.00      1 P:z             5
                        (      -5.048 eV)
   105     105       --         0.203 au  C             1.00      2 P:z             5
                        (       5.519 eV)
   106     106       --         2.124 au  C             1.00      3 P:z             5
                        (      57.805 eV)
   107     107       --         1.300 au  C             1.00      1 D:z2            5
                        (      35.364 eV)
   108     108       --         1.300 au  C             1.00      1 D:x2-y2         5
                        (      35.364 eV)
   109     109       --         1.300 au  C             1.00      1 D:xy            5
                        (      35.364 eV)
   110     110       --         1.300 au  C             1.00      1 D:xz            5
                        (      35.364 eV)
   111     111       --         1.300 au  C             1.00      1 D:yz            5
                        (      35.364 eV)
   112     112      2.000     -10.410 au  C             1.00      1 S               6
                        (    -283.269 eV)
   113     113      2.000      -0.583 au  C             1.00      2 S               6
                        (     -15.871 eV)
   114     114       --         0.414 au  C             1.00      3 S               6
                        (      11.266 eV)
   115     115       --         5.548 au  C             1.00      4 S               6
                        (     150.972 eV)
   116     116       --        50.361 au  C             1.00      5 S               6
                        (    1370.394 eV)
   117     117      0.667      -0.185 au  C             1.00      1 P:x             6
                        (      -5.048 eV)
   118     118       --         0.203 au  C             1.00      2 P:x             6
                        (       5.519 eV)
   119     119       --         2.124 au  C             1.00      3 P:x             6
                        (      57.805 eV)
   120     120      0.667      -0.185 au  C             1.00      1 P:y             6
                        (      -5.048 eV)
   121     121       --         0.203 au  C             1.00      2 P:y             6
                        (       5.519 eV)
   122     122       --         2.124 au  C             1.00      3 P:y             6
                        (      57.805 eV)
   123     123      0.667      -0.185 au  C             1.00      1 P:z             6
                        (      -5.048 eV)
   124     124       --         0.203 au  C             1.00      2 P:z             6
                        (       5.519 eV)
   125     125       --         2.124 au  C             1.00      3 P:z             6
                        (      57.805 eV)
   126     126       --         1.300 au  C             1.00      1 D:z2            6
                        (      35.364 eV)
   127     127       --         1.300 au  C             1.00      1 D:x2-y2         6
                        (      35.364 eV)
   128     128       --         1.300 au  C             1.00      1 D:xy            6
                        (      35.364 eV)
   129     129       --         1.300 au  C             1.00      1 D:xz            6
                        (      35.364 eV)
   130     130       --         1.300 au  C             1.00      1 D:yz            6
                        (      35.364 eV)
   131     131      2.000     -10.410 au  C             1.00      1 S               7
                        (    -283.269 eV)
   132     132      2.000      -0.583 au  C             1.00      2 S               7
                        (     -15.871 eV)
   133     133       --         0.414 au  C             1.00      3 S               7
                        (      11.266 eV)
   134     134       --         5.548 au  C             1.00      4 S               7
                        (     150.972 eV)
   135     135       --        50.361 au  C             1.00      5 S               7
                        (    1370.394 eV)
   136     136      0.667      -0.185 au  C             1.00      1 P:x             7
                        (      -5.048 eV)
   137     137       --         0.203 au  C             1.00      2 P:x             7
                        (       5.519 eV)
   138     138       --         2.124 au  C             1.00      3 P:x             7
                        (      57.805 eV)
   139     139      0.667      -0.185 au  C             1.00      1 P:y             7
                        (      -5.048 eV)
   140     140       --         0.203 au  C             1.00      2 P:y             7
                        (       5.519 eV)
   141     141       --         2.124 au  C             1.00      3 P:y             7
                        (      57.805 eV)
   142     142      0.667      -0.185 au  C             1.00      1 P:z             7
                        (      -5.048 eV)
   143     143       --         0.203 au  C             1.00      2 P:z             7
                        (       5.519 eV)
   144     144       --         2.124 au  C             1.00      3 P:z             7
                        (      57.805 eV)
   145     145       --         1.300 au  C             1.00      1 D:z2            7
                        (      35.364 eV)
   146     146       --         1.300 au  C             1.00      1 D:x2-y2         7
                        (      35.364 eV)
   147     147       --         1.300 au  C             1.00      1 D:xy            7
                        (      35.364 eV)
   148     148       --         1.300 au  C             1.00      1 D:xz            7
                        (      35.364 eV)
   149     149       --         1.300 au  C             1.00      1 D:yz            7
                        (      35.364 eV)
   150     150      2.000     -10.410 au  C             1.00      1 S               8
                        (    -283.269 eV)
   151     151      2.000      -0.583 au  C             1.00      2 S               8
                        (     -15.871 eV)
   152     152       --         0.414 au  C             1.00      3 S               8
                        (      11.266 eV)
   153     153       --         5.548 au  C             1.00      4 S               8
                        (     150.972 eV)
   154     154       --        50.361 au  C             1.00      5 S               8
                        (    1370.394 eV)
   155     155      0.667      -0.185 au  C             1.00      1 P:x             8
                        (      -5.048 eV)
   156     156       --         0.203 au  C             1.00      2 P:x             8
                        (       5.519 eV)
   157     157       --         2.124 au  C             1.00      3 P:x             8
                        (      57.805 eV)
   158     158      0.667      -0.185 au  C             1.00      1 P:y             8
                        (      -5.048 eV)
   159     159       --         0.203 au  C             1.00      2 P:y             8
                        (       5.519 eV)
   160     160       --         2.124 au  C             1.00      3 P:y             8
                        (      57.805 eV)
   161     161      0.667      -0.185 au  C             1.00      1 P:z             8
                        (      -5.048 eV)
   162     162       --         0.203 au  C             1.00      2 P:z             8
                        (       5.519 eV)
   163     163       --         2.124 au  C             1.00      3 P:z             8
                        (      57.805 eV)
   164     164       --         1.300 au  C             1.00      1 D:z2            8
                        (      35.364 eV)
   165     165       --         1.300 au  C             1.00      1 D:x2-y2         8
                        (      35.364 eV)
   166     166       --         1.300 au  C             1.00      1 D:xy            8
                        (      35.364 eV)
   167     167       --         1.300 au  C             1.00      1 D:xz            8
                        (      35.364 eV)
   168     168       --         1.300 au  C             1.00      1 D:yz            8
                        (      35.364 eV)
   169     169      2.000     -10.410 au  C             1.00      1 S               9
                        (    -283.269 eV)
   170     170      2.000      -0.583 au  C             1.00      2 S               9
                        (     -15.871 eV)
   171     171       --         0.414 au  C             1.00      3 S               9
                        (      11.266 eV)
   172     172       --         5.548 au  C             1.00      4 S               9
                        (     150.972 eV)
   173     173       --        50.361 au  C             1.00      5 S               9
                        (    1370.394 eV)
   174     174      0.667      -0.185 au  C             1.00      1 P:x             9
                        (      -5.048 eV)
   175     175       --         0.203 au  C             1.00      2 P:x             9
                        (       5.519 eV)
   176     176       --         2.124 au  C             1.00      3 P:x             9
                        (      57.805 eV)
   177     177      0.667      -0.185 au  C             1.00      1 P:y             9
                        (      -5.048 eV)
   178     178       --         0.203 au  C             1.00      2 P:y             9
                        (       5.519 eV)
   179     179       --         2.124 au  C             1.00      3 P:y             9
                        (      57.805 eV)
   180     180      0.667      -0.185 au  C             1.00      1 P:z             9
                        (      -5.048 eV)
   181     181       --         0.203 au  C             1.00      2 P:z             9
                        (       5.519 eV)
   182     182       --         2.124 au  C             1.00      3 P:z             9
                        (      57.805 eV)
   183     183       --         1.300 au  C             1.00      1 D:z2            9
                        (      35.364 eV)
   184     184       --         1.300 au  C             1.00      1 D:x2-y2         9
                        (      35.364 eV)
   185     185       --         1.300 au  C             1.00      1 D:xy            9
                        (      35.364 eV)
   186     186       --         1.300 au  C             1.00      1 D:xz            9
                        (      35.364 eV)
   187     187       --         1.300 au  C             1.00      1 D:yz            9
                        (      35.364 eV)
   188     188      2.000     -10.410 au  C             1.00      1 S              10
                        (    -283.269 eV)
   189     189      2.000      -0.583 au  C             1.00      2 S              10
                        (     -15.871 eV)
   190     190       --         0.414 au  C             1.00      3 S              10
                        (      11.266 eV)
[...]
                                    2.79%     1 P:x            -5.048  0.67     7 C
                                    2.56%     1 P:z            -5.048  0.67    13 C
                                    2.56%     1 S              -6.581  1.00    28 H
                                    2.49%     1 P:z            -5.048  0.67     6 C
                                   -2.25%     2 S               3.073  0.00    20 H
                                    2.21%     2 P:z             5.519  0.00     9 C
                                    2.15%     2 P:x             5.519  0.00     7 C
                                    2.10%     1 S              -6.581  1.00    39 H
                                   -2.07%     2 S               3.073  0.00    22 H
                                    1.89%     1 P:x            -5.048  0.67    15 C
                                   -1.71%     2 P:y             5.519  0.00     7 C
                                    1.55%     1 S              -6.581  1.00    35 H
                                    1.54%     1 P:y            12.103  0.00    26 H
                                    1.54%     3 P:y             2.910  0.00     2 P
                                    1.49%     1 S              -6.581  1.00    24 H
                                    1.38%     1 S              -6.581  1.00    26 H
                                    1.37%     3 P:x             4.258  0.00     1 S
                                    1.30%     2 S               3.073  0.00    19 H
                                   -1.27%     2 P:x             5.519  0.00     5 C
                                    1.27%     2 P:z             5.519  0.00    12 C
                                    1.26%     1 S              -6.581  1.00    22 H
                                    1.23%     1 P:x            12.103  0.00    27 H
                                    1.22%     2 P:x             5.519  0.00     8 C
                                    1.22%     2 S               3.073  0.00    18 H
                                   -1.22%     3 P:x             2.910  0.00     2 P
                                    1.21%     1 P:y            -5.048  0.67     8 C
                                   -1.20%     2 S               3.073  0.00    29 H
                                    1.19%     1 P:x            -5.048  0.67     9 C
                                   -1.19%     3 S              11.266  0.00    11 C
                                   -1.16%     2 S               3.073  0.00    21 H
                                    1.16%     1 P:z            -5.048  0.67    16 C
                                    1.15%     1 P:z            -5.048  0.67    11 C
                                   -1.15%     2 S               3.073  0.00    25 H
                                    1.13%     1 S              -6.581  1.00    25 H
                                    1.07%     1 S              -6.581  1.00    23 H
                                    1.03%     1 P:z            12.103  0.00    22 H
                                    1.02%     1 S              -6.581  1.00    37 H
       5.326  0.00   116 A          8.71%     1 P:y            -5.048  0.67    14 C
                                    7.45%     1 P:y            -5.048  0.67    12 C
                                    7.24%     1 P:y            -5.048  0.67    13 C
                                    6.86%     3 P:z             2.910  0.00     2 P
                                    6.08%     1 P:x            -5.048  0.67    11 C
                                    5.42%     1 P:z            -5.048  0.67     7 C
                                   -5.23%     2 P:z             5.519  0.00     5 C
                                    4.86%     1 S              -6.581  1.00    18 H
                                    4.31%     1 P:x            -5.048  0.67     8 C
                                    4.24%     1 P:x            -5.048  0.67     5 C
                                   -4.01%     2 P:y             5.519  0.00     5 C
                                   -3.95%     2 P:z             5.519  0.00    13 C
                                    3.92%     1 P:y            -5.048  0.67     8 C
                                    3.91%     1 P:x            -5.048  0.67     6 C
                                    3.77%     1 P:y            -5.048  0.67     5 C
                                    3.67%     1 S              -6.581  1.00    22 H
                                    3.34%     1 P:y            -5.048  0.67    11 C
                                    3.11%     1 S              -6.581  1.00    24 H
                                   -3.08%     2 P:z             5.519  0.00    14 C
                                    3.04%     2 P:y             5.519  0.00     8 C
                                    3.02%     2 P:y             5.519  0.00    14 C
                                    2.68%     1 P:z            -5.048  0.67    13 C
                                    2.53%     1 P:z            -5.048  0.67    14 C
                                   -2.39%     2 S               3.073  0.00    22 H
                                   -2.24%     2 S               3.073  0.00    18 H
                                   -2.23%     2 P:y             5.519  0.00    11 C
                                    2.01%     2 P:z             5.519  0.00    16 C
                                   -1.95%     2 S               3.073  0.00    38 H
                                   -1.89%     2 P:x             5.519  0.00     5 C
                                    1.76%     2 P:z             5.519  0.00     8 C
                                    1.67%     2 P:y             5.519  0.00     9 C
                                    1.65%     1 S              -6.581  1.00    41 H
                                    1.57%     1 P:y            -5.048  0.67     7 C
                                   -1.55%     2 P:x             5.519  0.00    11 C
                                    1.54%     1 S              -6.581  1.00    38 H
                                    1.50%     1 P:z            -5.048  0.67    16 C
                                    1.47%     1 P:z            -5.048  0.67    10 C
                                   -1.40%     2 P:z             5.519  0.00     6 C
                                    1.37%     1 S              -6.581  1.00    42 H
                                    1.35%     2 S               3.073  0.00    40 H
                                    1.34%     2 P:x             5.519  0.00     8 C
                                    1.31%     1 P:z            -5.048  0.67    12 C
                                    1.27%     2 P:x             5.519  0.00    15 C
                                   -1.25%     4 S               6.231  0.00     1 S
                                    1.21%     1 S              -6.581  1.00    19 H
                                    1.16%     1 S              -6.581  1.00    21 H
                                   -1.06%     2 P:z             5.519  0.00    10 C
                                   -1.06%     2 P:z             5.519  0.00     9 C
                                    1.03%     1 P:y            -5.048  0.67     9 C
                                    1.02%     1 S              -6.581  1.00    33 H
       5.451  0.00   117 A        -13.43%     2 P:z             5.519  0.00     6 C
                                   11.22%     1 P:z            -5.048  0.67     6 C
                                   10.08%     3 P:y             2.910  0.00     2 P
                                    7.76%     1 P:x            -5.048  0.67    10 C
                                    7.24%     1 S              -6.581  1.00    26 H
                                    6.90%     1 P:y            -5.048  0.67    10 C
                                    5.47%     1 P:z            -5.048  0.67     5 C
                                    4.89%     1 S              -6.581  1.00    25 H
                                    4.56%     1 P:z            -5.048  0.67    13 C
                                    4.48%     1 P:y            -5.048  0.67     9 C
                                    4.34%     1 S              -6.581  1.00    35 H
                                    4.29%     1 P:z            -5.048  0.67    16 C
                                   -4.02%     2 S               3.073  0.00    26 H
                                   -3.90%     2 P:z             5.519  0.00     5 C
                                    3.70%     1 P:z            -5.048  0.67     9 C
                                    3.63%     2 P:z             5.519  0.00    12 C
                                    3.58%     1 P:z            -5.048  0.67    15 C
                                    3.53%     1 P:x            -5.048  0.67     8 C
                                    3.50%     1 S              -6.581  1.00    27 H
                                   -3.14%     2 P:y             5.519  0.00     9 C
                                   -3.11%     2 P:x             5.519  0.00     8 C
                                    3.08%     2 P:y             5.519  0.00    11 C
                                    2.80%     1 P:y            -5.048  0.67     7 C
                                    2.73%     1 S              -6.581  1.00    21 H
                                    2.67%     1 P:z            -5.048  0.67    10 C
                                    2.58%     1 P:z            -5.048  0.67     7 C
                                    2.55%     1 S              -6.581  1.00    31 H
                                    2.53%     1 P:x            -5.048  0.67    15 C
                                    2.51%     2 S               3.073  0.00    21 H
                                    2.30%     1 S              -6.581  1.00    39 H
                                    2.19%     1 P:x            -5.048  0.67    16 C
                                   -1.96%     2 S               3.073  0.00    25 H
                                    1.62%     1 S              -6.581  1.00    19 H
                                   -1.59%     2 S               3.073  0.00    33 H
                                   -1.53%     2 P:y             5.519  0.00    12 C
                                    1.45%     3 P:x             2.910  0.00     2 P
                                    1.44%     1 P:y            -5.048  0.67    11 C
                                   -1.44%     2 P:z             5.519  0.00    10 C
                                    1.36%     1 P:y            -5.048  0.67     5 C
                                   -1.26%     2 S               3.073  0.00    27 H
                                   -1.23%     2 P:y             5.519  0.00    14 C
                                   -1.19%     2 S               3.073  0.00    35 H
                                   -1.19%     2 S               3.073  0.00    28 H
                                    1.18%     1 S              -6.581  1.00    30 H
                                   -1.12%     2 P:x             5.519  0.00    15 C
                                   -1.10%     2 P:x             5.519  0.00    16 C
                                    1.10%     1 S              -6.581  1.00    17 H
                                   -1.09%     2 P:z             5.519  0.00     7 C
                                    1.07%     2 S               3.073  0.00    24 H

 Energy gradients wrt nuclear displacements
 ==========================================

     Atom      Cartesian (a.u./angstrom)
                 X         Y         Z
 ----------------------------------------
     1 S     0.000208  0.000322  0.000521
     2 P    -0.000438 -0.000364 -0.000458
     3 O    -0.000038  0.000077  0.000079
     4 O    -0.000031 -0.000079  0.000006
     5 C     0.000108 -0.000227  0.000016
     6 C     0.000066  0.000201 -0.000048
     7 C     0.000042  0.000028 -0.000147
     8 C    -0.000040 -0.000036  0.000064
     9 C     0.000071 -0.000048  0.000093
    10 C    -0.000054  0.000008 -0.000033
    11 H     0.000021 -0.000006 -0.000049
    12 H     0.000013  0.000042  0.000006
    13 H     0.000023  0.000032  0.000026
    14 H     0.000007  0.000003 -0.000009
    15 H    -0.000020 -0.000003 -0.000014
    16 H     0.000002 -0.000008 -0.000027
    17 H     0.000004 -0.000024  0.000013
    18 H     0.000001 -0.000028  0.000012
    19 H     0.000003 -0.000020 -0.000004
    20 H     0.000000 -0.000015  0.000030
    21 H     0.000024  0.000009  0.000035
    22 H     0.000026 -0.000013  0.000018
    23 C     0.000046 -0.000093 -0.000063
    24 C    -0.000045  0.000105 -0.000026
    25 N     0.000028 -0.000089  0.000033
    26 C    -0.000039  0.000007 -0.000131
    27 C     0.000025  0.000034  0.000079
    28 C    -0.000035 -0.000012  0.000032
    29 C    -0.000018  0.000113 -0.000016
    30 H     0.000033  0.000023  0.000010
    31 H    -0.000028  0.000071  0.000013
    32 H     0.000008 -0.000038 -0.000006
    33 H     0.000024  0.000002 -0.000021
    34 H    -0.000005  0.000025 -0.000007
    35 H    -0.000007 -0.000013  0.000018
    36 H    -0.000023  0.000000  0.000033
    37 H     0.000034  0.000018  0.000016
    38 H     0.000020  0.000021  0.000001
    39 H     0.000007 -0.000007 -0.000014
    40 H     0.000008 -0.000002  0.000021
    41 H    -0.000030 -0.000009 -0.000026
    42 H     0.000000  0.000014 -0.000046
    43 H    -0.000003 -0.000020 -0.000030
 ----------------------------------------



 =======================================================================
 Electrostatic potential at the Nuclei due to electrons and other nuclei
 =======================================================================
  
         Atom                  Potential
         ----                  ---------
     1)   S                  59.60470691
     2)   P                  54.40049358
     3)   O                  22.36899052
     4)   O                  22.37224792
     5)   C                  14.69875734
     6)   C                  14.69836884
     7)   C                  14.78554104
     8)   C                  14.77949088
     9)   C                  14.78347040
    10)   C                  14.77999437
    11)   H                   1.10820895
    12)   H                   1.11241100
    13)   H                   1.11354159
    14)   H                   1.10946444
    15)   H                   1.10171048
    16)   H                   1.10871420
    17)   H                   1.10696289
    18)   H                   1.11013664
    19)   H                   1.11119320
    20)   H                   1.10210359
    21)   H                   1.10904224
    22)   H                   1.11026419
    23)   C                  14.75382208
    24)   C                  14.75746119
    25)   N                  18.41029310
    26)   C                  14.75756925
    27)   C                  14.79688063
    28)   C                  14.79400576
    29)   C                  14.75808470
    30)   H                   1.10968955
    31)   H                   1.10718536
    32)   H                   1.12217005
    33)   H                   1.12920358
    34)   H                   1.13207870
    35)   H                   1.12613124
    36)   H                   1.12708234
    37)   H                   1.12169835
    38)   H                   1.12397562
    39)   H                   1.12354281
    40)   H                   1.12223905
    41)   H                   1.12864249
    42)   H                   1.12445088
    43)   H                   1.12845180
 Mulliken charges used for AMS results%charges...


    =====================
     CALCULATION RESULTS
    =====================

Energy (hartree)           -10.53595990

Gradients (hartree/bohr)
  Index   Atom            d/dx            d/dy            d/dz
      1      S    0.0001098340    0.0001704597    0.0002755381
      2      P   -0.0002315318   -0.0001926207   -0.0002423968
      3      O   -0.0000199165    0.0000406318    0.0000417792
      4      O   -0.0000166516   -0.0000416620    0.0000032028
      5      C    0.0000569125   -0.0001203650    0.0000084338
      6      C    0.0000347794    0.0001064660   -0.0000253299
      7      C    0.0000224137    0.0000147536   -0.0000778748
      8      C   -0.0000212610   -0.0000192620    0.0000339742
      9      C    0.0000374686   -0.0000253297    0.0000492528
     10      C   -0.0000284325    0.0000041718   -0.0000172463
     11      H    0.0000108683   -0.0000032687   -0.0000257344
     12      H    0.0000068263    0.0000221105    0.0000032861
     13      H    0.0000122760    0.0000167569    0.0000136148
     14      H    0.0000039434    0.0000018434   -0.0000049289
     15      H   -0.0000107355   -0.0000015169   -0.0000074805
     16      H    0.0000010765   -0.0000043869   -0.0000140976
     17      H    0.0000019624   -0.0000127165    0.0000068018
     18      H    0.0000006450   -0.0000150077    0.0000062330
     19      H    0.0000014856   -0.0000107936   -0.0000019708
     20      H    0.0000000837   -0.0000076792    0.0000157748
     21      H    0.0000129491    0.0000045320    0.0000182857
     22      H    0.0000138844   -0.0000066182    0.0000096071
     23      C    0.0000243504   -0.0000490209   -0.0000332806
     24      C   -0.0000238313    0.0000553158   -0.0000139021
     25      N    0.0000145899   -0.0000472295    0.0000172854
     26      C   -0.0000205976    0.0000039654   -0.0000692488
     27      C    0.0000132663    0.0000178706    0.0000419325
     28      C   -0.0000184406   -0.0000063146    0.0000171938
     29      C   -0.0000095635    0.0000596020   -0.0000085295
     30      H    0.0000177162    0.0000123230    0.0000052395
     31      H   -0.0000146763    0.0000377476    0.0000067442
     32      H    0.0000041881   -0.0000202479   -0.0000032700
     33      H    0.0000126946    0.0000008470   -0.0000111763
     34      H   -0.0000025303    0.0000133359   -0.0000038686
     35      H   -0.0000035068   -0.0000069267    0.0000095999
     36      H   -0.0000121229    0.0000001260    0.0000172719
     37      H    0.0000181855    0.0000096545    0.0000085022
     38      H    0.0000104520    0.0000112873    0.0000006210
     39      H    0.0000037732   -0.0000039147   -0.0000071463
     40      H    0.0000044923   -0.0000011025    0.0000113212
     41      H   -0.0000160372   -0.0000048824   -0.0000135619
     42      H    0.0000001050    0.0000076217   -0.0000244703
     43      H   -0.0000013870   -0.0000105566   -0.0000159815


--------------
Atomic charges
--------------
  Index   Atom    Charge
      1      S   -0.0785
      2      P    0.7819
      3      O   -0.6553
      4      O   -0.6605
      5      C    0.3005
      6      C    0.3116
      7      C    0.4767
      8      C    0.4582
      9      C    0.4777
     10      C    0.4596
     11      H   -0.1581
     12      H   -0.1411
     13      H   -0.1632
     14      H   -0.1436
     15      H   -0.1479
     16      H   -0.1606
     17      H   -0.1530
     18      H   -0.1616
     19      H   -0.1634
     20      H   -0.1494
     21      H   -0.1620
     22      H   -0.1424
     23      C    0.0661
     24      C    0.5163
     25      N   -0.4256
     26      C    0.4559
     27      C    0.4653
     28      C    0.4254
     29      C    0.4897
     30      H   -0.0971
     31      H   -0.0733
     32      H   -0.1232
     33      H   -0.1696
     34      H   -0.1752
     35      H   -0.1545
     36      H   -0.1423
     37      H   -0.1788
     38      H   -0.1434
     39      H   -0.1646
     40      H   -0.1599
     41      H   -0.1303
     42      H   -0.1691
     43      H   -0.1378


Dipole moment vector    (Debye):    -1.61890516   -0.92398107    0.45831244
              magnitude (Debye):     1.91954297


AMS application finished. Exiting.
NORMAL TERMINATION
     Total cpu time:    3333.55
  Total system time:      49.46
 Total elapsed time:    3486.91
