

 Parallel Execution: Process Information
 ==============================================================================
 Rank   Node Name                              NodeID   MyNodeRank  NodeMaster
    0   adf1                                      0          0          0
    1   adf1                                      0          1         -1
    2   adf1                                      0          2         -1
    3   adf1                                      0          3         -1
    4   adf1                                      0          4         -1
    5   adf1                                      0          5         -1
    6   adf1                                      1          0          1
    7   adf1                                      1          1         -1
    8   adf1                                      1          2         -1
    9   adf1                                      1          3         -1
   10   adf1                                      1          4         -1
   11   adf1                                      1          5         -1
 ==============================================================================


May use up to 11697MB of RAM as shared memory on node 0
May use up to 11718MB of RAM as shared memory on node 1

 *******************************************************************************
 *                                                                             *
 *  --------------------------------                                           *
 *   Amsterdam Modeling Suite (AMS)              2021.102                      *
 *  --------------------------------                                           *
 *                                               r95042 2021-06-07             *
 *                                                                             *
 *                                                                             *
 *                              =================                              *
 *                              |               |                              *
 *                              |     A M S     |                              *
 *                              |               |                              *
 *                              =================                              *
 *                                                                             *
 *                                                                             *
 *   Online information and documentation:  https://www.scm.com/support/       *
 *   E-mail:  support@scm.com   info@scm.com                                   *
 *                                                                             *
 *   Scientific publications using AMS results must be properly referenced     *
 *   See the User Manuals (or the web site) for recommended citations          *
 *   The terms and conditions of the End User License Agreement apply to       *
 *   the use of AMS, https://www.scm.com/license-terms/                        *
 *                                                                             *
 **********************  x86_64_linux_intel / intelmpi  ************************
 
 Licensed to: Dr. Miroslav Ilias / Matej Bel University, Department Chemistry, Fac. Natural Sciences / Banska Bystrica / SLOVAKIA
 SCM User ID: u17848
  
 AMS 2021.102  RunTime: Sep06-2021 09:47:13  ShM Nodes: 2  Procs: 12

 AMS jobname: ams
 AMS jobid  : 1086330846

 Start   directory: /home/milias/Work/projects/open-collection/theoretical_chemistry/projects/nmr_diplomovky/derivaty_markerov/derivative_1/ams/srzora/tmp.milias.20906.0.noindex/
 Results directory: /home/milias/Work/projects/open-collection/theoretical_chemistry/projects/nmr_diplomovky/derivaty_markerov/derivative_1/ams/srzora/der1.nmr_srzora_gnuc_opbe_tz2p-j_good_cosmo-chcl3.results/
 Scratch directory: /tmp/amstmp_ams_kid0.1086330846/


 Communication costs MPI_COMM_WORLD:      2.972 usec per message,   0.0269 usec per 8-byte item
 Communication costs for intra-node:      1.628 usec per message,   0.0130 usec per 8-byte item

 RNG seed: 823937234 -740051949 -740243744 -1191227500 -316045429 -377421274 -928390504 -1092067189



                     *************************************************************************
                     *  ADF 2021.102  RunTime: Sep06-2021 09:47:13  ShM Nodes: 2  Procs: 12  *
                     *************************************************************************
  
       ****************************
       * SINGLE POINT CALCULATION *
       ****************************
 
--------
Geometry
--------
Formula: C12H26NO2PS
Atoms
  Index Symbol   x (angstrom)   y (angstrom)   z (angstrom)
      1      S     3.19844212     1.66611869     1.07070682       adf.R=1.792
      2      P     2.20484972     0.62643480    -0.52158521       adf.R=1.850
      3      O     0.80091558     1.44098351    -0.77507070       adf.R=1.517
      4      O     1.46621088    -0.60124843     0.30095158       adf.R=1.517
      5      C    -0.28955125     0.95032146     0.04315583       adf.R=1.700
      6      C     0.02738677    -0.56637593     0.16689373       adf.R=1.700
      7      C    -0.26543302     1.67532343     1.37997805       adf.R=1.700
      8      C    -1.57365521     1.25858926    -0.69982272       adf.R=1.700
      9      C    -0.34151780    -1.35270624    -1.08322849       adf.R=1.700
     10      C    -0.56052113    -1.22527644     1.39845223       adf.R=1.700
     11      H    -1.15744200     1.44032662     1.96333481       adf.R=1.350
     12      H     0.61117897     1.41303409     1.97363426       adf.R=1.350
     13      H    -0.24515453     2.75028782     1.19832988       adf.R=1.350
     14      H    -1.54053305     0.88808547    -1.72314219       adf.R=1.350
     15      H    -2.42754047     0.80901216    -0.18776760       adf.R=1.350
     16      H    -1.72791780     2.33794169    -0.73172638       adf.R=1.350
     17      H    -1.42279411    -1.46244619    -1.18049552       adf.R=1.350
     18      H     0.04225639    -0.87081180    -1.98424959       adf.R=1.350
     19      H     0.10006176    -2.34746003    -1.01304579       adf.R=1.350
     20      H    -1.65051105    -1.15160044     1.38643616       adf.R=1.350
     21      H    -0.29286975    -2.28263559     1.40998743       adf.R=1.350
     22      H    -0.18470645    -0.76852243     2.31233573       adf.R=1.350
     23      C     4.83575946     1.76580878     0.27545180       adf.R=1.700
     24      C     5.73961152     0.60993895     0.66814195       adf.R=1.700
     25      N     7.05787945     0.73174824     0.07485632       adf.R=1.608
     26      C     7.85403481     1.80369478     0.67419030       adf.R=1.700
     27      C     8.27504173     2.87124619    -0.32137421       adf.R=1.700
     28      C     8.96957442    -0.52932481    -0.87671786       adf.R=1.700
     29      C     7.75873754    -0.54169711     0.03636747       adf.R=1.700
     30      H     4.70677977     1.79222614    -0.80880220       adf.R=1.350
     31      H     5.25238258     2.72648652     0.58168223       adf.R=1.350
     32      H     5.28339368    -0.31525215     0.30648985       adf.R=1.350
     33      H     5.77468317     0.53316981     1.76933637       adf.R=1.350
     34      H     8.06662604    -0.86159020     1.04935331       adf.R=1.350
     35      H     7.05319170    -1.29343118    -0.32624740       adf.R=1.350
     36      H     8.68075871    -0.24937314    -1.89160692       adf.R=1.350
     37      H     9.42658745    -1.52075442    -0.90585208       adf.R=1.350
     38      H     9.73307117     0.17224539    -0.53422291       adf.R=1.350
     39      H     8.74374744     1.37793382     1.15566842       adf.R=1.350
     40      H     7.28141151     2.27043942     1.48349671       adf.R=1.350
     41      H     8.87484225     2.44146420    -1.12515242       adf.R=1.350
     42      H     8.86529771     3.64904523     0.17073434       adf.R=1.350
     43      H     7.40105457     3.33969422    -0.77816944       adf.R=1.350
 
Total System Charge             0.00000
Bonding info available!
 
 
----------------
ADF Engine Input
----------------
 
 Basis
 Type TZ2P-J
 Core None
 End
 Save TAPE10
 XC
 GGA OPBE
 End
 Symmetry NOSYM
 Solvation
 Surf Delley
 Solv name=Chloroform cav0=0.0 cav1=0.0067639
 Charged method=CONJ
 C-Mat POT
 SCF VAR ALL
 CSMRSP
 End
 NumericalQuality Good
 NuclearModel Gaussian
 

 Title: *** (NO TITLE) ***

 *** adf ***



 ===========================
 A T T A C H E D   F I L E S
 ===========================
  



 ===============================
 M O D E L   P A R A M E T E R S
 ===============================
  
 DENSITY FUNCTIONAL POTENTIAL (scf)
    LDA:                               VWN                                      
    Gradient Corrections:              OPTX PBEc                               == Not Default ==

 SPIN  (restricted / unrestr.)
    Molecule:                          Restricted                               
    Fragments:                         Restricted                               

 OTHER ASPECTS
    Relativistic Corrections:          scalar (ZORA,MAPA)                       

    Nuclear Charge Density Model:      Gaussian Charge Distributions            *** SPECIAL ***
    Core Treatment:                    Frozen Orbital(s)                        

    Hyperfine or Zeeman Interaction:   ---                                      

 SOLVATION
-------------------------------------------

  The Delley construction of COSMO surface surface is calculated

       Division Level for Surface Triangles (NDIV)                  3
       Final Division Level for Triangles (NFDIV)                   1
       Radius of the Solvent (RSOL)                           3.17000 angstr
  Dielectric Constant (EPSL)                                  4.80000

       COSMO equation is solved iteratively-               conjugate-gradient

       Maximun of Iterations for Charges (NCIX)                  1000
       Criterion for Charge convergence (CCNV)                1.0E-08

  COSMO charges included variationally in SCF

       COSMO included at every SCF cycle

  Geometry-dependent empirical factor                         0.00000

  C-Matrix calculated in cspmtx

  In cspmtx, C-Matrix calculated using fitted potential

-------------------------------------------



 Fragment File(s)
 ----------------
 S:
         file : /home/milias/Work/projects/open-collection/theoretical_chemistry/projects/nmr_diplomovky/derivaty_markerov/derivative_1/ams/srzora/der1.nmr_srzora_gnuc_opbe_tz2p-j_good_cosmo-chcl3.results/t21.B7FC2A9.S
         jobid: 0
         title: Sulphur (TZ2P-J)
 P:
         file : /home/milias/Work/projects/open-collection/theoretical_chemistry/projects/nmr_diplomovky/derivaty_markerov/derivative_1/ams/srzora/der1.nmr_srzora_gnuc_opbe_tz2p-j_good_cosmo-chcl3.results/t21.59F99ABC.P
         jobid: 0
         title: Phosphorus (TZ2P-J)
 O:
         file : /home/milias/Work/projects/open-collection/theoretical_chemistry/projects/nmr_diplomovky/derivaty_markerov/derivative_1/ams/srzora/der1.nmr_srzora_gnuc_opbe_tz2p-j_good_cosmo-chcl3.results/t21.17BE94A0.O
         jobid: 0
         title: Oxygen (TZ2P-J)
 C:
         file : /home/milias/Work/projects/open-collection/theoretical_chemistry/projects/nmr_diplomovky/derivaty_markerov/derivative_1/ams/srzora/der1.nmr_srzora_gnuc_opbe_tz2p-j_good_cosmo-chcl3.results/t21.3F289A3B.C
         jobid: 0
         title: Carbon (TZ2P-J)
 H:
         file : /home/milias/Work/projects/open-collection/theoretical_chemistry/projects/nmr_diplomovky/derivaty_markerov/derivative_1/ams/srzora/der1.nmr_srzora_gnuc_opbe_tz2p-j_good_cosmo-chcl3.results/t21.1888F0DB.H
         jobid: 0
         title: Hydrogen (TZ2P-J)
 N:
         file : /home/milias/Work/projects/open-collection/theoretical_chemistry/projects/nmr_diplomovky/derivaty_markerov/derivative_1/ams/srzora/der1.nmr_srzora_gnuc_opbe_tz2p-j_good_cosmo-chcl3.results/t21.45ACDD67.N
         jobid: 0
         title: Nitrogen (TZ2P-J)



 ===============
 G E O M E T R Y  ***  3D  Molecule  ***
 ===============
  

 ATOMS
 =====                            X Y Z                    CHARGE                     RADIUS
                                (Angstrom)             Nucl     +Core       At.Mass (Angstrom)
                       --------------------------    ----------------       ------- ----------
    1  S               3.1984    1.6661    1.0707     16.00     16.00       31.9721    1.7920
    2  P               2.2048    0.6264   -0.5216     15.00     15.00       30.9738    1.8500
    3  O               0.8009    1.4410   -0.7751      8.00      8.00       15.9949    1.5170
    4  O               1.4662   -0.6012    0.3010      8.00      8.00       15.9949    1.5170
    5  C              -0.2896    0.9503    0.0432      6.00      6.00       12.0000    1.7000
    6  C               0.0274   -0.5664    0.1669      6.00      6.00       12.0000    1.7000
    7  C              -0.2654    1.6753    1.3800      6.00      6.00       12.0000    1.7000
    8  C              -1.5737    1.2586   -0.6998      6.00      6.00       12.0000    1.7000
    9  C              -0.3415   -1.3527   -1.0832      6.00      6.00       12.0000    1.7000
   10  C              -0.5605   -1.2253    1.3985      6.00      6.00       12.0000    1.7000
   11  H              -1.1574    1.4403    1.9633      1.00      1.00        1.0078    1.3500
   12  H               0.6112    1.4130    1.9736      1.00      1.00        1.0078    1.3500
   13  H              -0.2452    2.7503    1.1983      1.00      1.00        1.0078    1.3500
   14  H              -1.5405    0.8881   -1.7231      1.00      1.00        1.0078    1.3500
   15  H              -2.4275    0.8090   -0.1878      1.00      1.00        1.0078    1.3500
   16  H              -1.7279    2.3379   -0.7317      1.00      1.00        1.0078    1.3500
   17  H              -1.4228   -1.4624   -1.1805      1.00      1.00        1.0078    1.3500
   18  H               0.0423   -0.8708   -1.9842      1.00      1.00        1.0078    1.3500
   19  H               0.1001   -2.3475   -1.0130      1.00      1.00        1.0078    1.3500
   20  H              -1.6505   -1.1516    1.3864      1.00      1.00        1.0078    1.3500
   21  H              -0.2929   -2.2826    1.4100      1.00      1.00        1.0078    1.3500
   22  H              -0.1847   -0.7685    2.3123      1.00      1.00        1.0078    1.3500
   23  C               4.8358    1.7658    0.2755      6.00      6.00       12.0000    1.7000
   24  C               5.7396    0.6099    0.6681      6.00      6.00       12.0000    1.7000
   25  N               7.0579    0.7317    0.0749      7.00      7.00       14.0031    1.6080
   26  C               7.8540    1.8037    0.6742      6.00      6.00       12.0000    1.7000
   27  C               8.2750    2.8712   -0.3214      6.00      6.00       12.0000    1.7000
   28  C               8.9696   -0.5293   -0.8767      6.00      6.00       12.0000    1.7000
   29  C               7.7587   -0.5417    0.0364      6.00      6.00       12.0000    1.7000
   30  H               4.7068    1.7922   -0.8088      1.00      1.00        1.0078    1.3500
   31  H               5.2524    2.7265    0.5817      1.00      1.00        1.0078    1.3500
   32  H               5.2834   -0.3153    0.3065      1.00      1.00        1.0078    1.3500
   33  H               5.7747    0.5332    1.7693      1.00      1.00        1.0078    1.3500
   34  H               8.0666   -0.8616    1.0494      1.00      1.00        1.0078    1.3500
   35  H               7.0532   -1.2934   -0.3262      1.00      1.00        1.0078    1.3500
   36  H               8.6808   -0.2494   -1.8916      1.00      1.00        1.0078    1.3500
   37  H               9.4266   -1.5208   -0.9059      1.00      1.00        1.0078    1.3500
   38  H               9.7331    0.1722   -0.5342      1.00      1.00        1.0078    1.3500
   39  H               8.7437    1.3779    1.1557      1.00      1.00        1.0078    1.3500
   40  H               7.2814    2.2704    1.4835      1.00      1.00        1.0078    1.3500
   41  H               8.8748    2.4415   -1.1252      1.00      1.00        1.0078    1.3500
   42  H               8.8653    3.6490    0.1707      1.00      1.00        1.0078    1.3500
   43  H               7.4011    3.3397   -0.7782      1.00      1.00        1.0078    1.3500


 FRAGMENTS
 =========                                     Atoms in this Fragment     Cart. coord.s (Angstrom)
                                               -------------------------------------------------------
    1  S                                                 1  S            3.1984    1.6661    1.0707
    2  P                                                 2  P            2.2048    0.6264   -0.5216
    3  O                                                 3  O            0.8009    1.4410   -0.7751
    4  O                                                 4  O            1.4662   -0.6012    0.3010
    5  C                                                 5  C           -0.2896    0.9503    0.0432
    6  C                                                 6  C            0.0274   -0.5664    0.1669
    7  C                                                 7  C           -0.2654    1.6753    1.3800
    8  C                                                 8  C           -1.5737    1.2586   -0.6998
    9  C                                                 9  C           -0.3415   -1.3527   -1.0832
   10  C                                                10  C           -0.5605   -1.2253    1.3985
   11  C                                                23  C            4.8358    1.7658    0.2755
   12  C                                                24  C            5.7396    0.6099    0.6681
   13  C                                                26  C            7.8540    1.8037    0.6742
   14  C                                                27  C            8.2750    2.8712   -0.3214
   15  C                                                28  C            8.9696   -0.5293   -0.8767
   16  C                                                29  C            7.7587   -0.5417    0.0364
   17  H                                                11  H           -1.1574    1.4403    1.9633
   18  H                                                12  H            0.6112    1.4130    1.9736
   19  H                                                13  H           -0.2452    2.7503    1.1983
   20  H                                                14  H           -1.5405    0.8881   -1.7231
   21  H                                                15  H           -2.4275    0.8090   -0.1878
   22  H                                                16  H           -1.7279    2.3379   -0.7317
   23  H                                                17  H           -1.4228   -1.4624   -1.1805
   24  H                                                18  H            0.0423   -0.8708   -1.9842
   25  H                                                19  H            0.1001   -2.3475   -1.0130
   26  H                                                20  H           -1.6505   -1.1516    1.3864
   27  H                                                21  H           -0.2929   -2.2826    1.4100
   28  H                                                22  H           -0.1847   -0.7685    2.3123
   29  H                                                30  H            4.7068    1.7922   -0.8088
   30  H                                                31  H            5.2524    2.7265    0.5817
   31  H                                                32  H            5.2834   -0.3153    0.3065
   32  H                                                33  H            5.7747    0.5332    1.7693
   33  H                                                34  H            8.0666   -0.8616    1.0494
   34  H                                                35  H            7.0532   -1.2934   -0.3262
   35  H                                                36  H            8.6808   -0.2494   -1.8916
   36  H                                                37  H            9.4266   -1.5208   -0.9059
   37  H                                                38  H            9.7331    0.1722   -0.5342
   38  H                                                39  H            8.7437    1.3779    1.1557
   39  H                                                40  H            7.2814    2.2704    1.4835
   40  H                                                41  H            8.8748    2.4415   -1.1252
   41  H                                                42  H            8.8653    3.6490    0.1707
   42  H                                                43  H            7.4011    3.3397   -0.7782
   43  N                                                25  N            7.0579    0.7317    0.0749



 =====================================
 S Y M M E T R Y ,   E L E C T R O N S
 =====================================
  
 Symmetry: NOSYM

 Irreducible Representations, including subspecies
 -------------------------------------------------
 A


 Configuration of Valence Electrons
 ==================================
 ( determined in the SCF procedure )

 Total:   152

 Net Charge: 0 (Nuclei minus Electrons)

 Aufbau principle for MO occupations will be applied through SCF cycle no.     150
 Thereafter, the program will assign electrons to MOs that are spatially
 similar to the occupied MOs in a "reference" cycle ("KeepOrbitals").
 The reference cycle is always the PREVIOUS cycle: it will evolve with
 the SCF procedure.
1
 ***************************************************************************************************



                                      ****************************************
                                      *  B U I L D : (Fragments, Functions)  *
                                      ****************************************
  

 Total nr. of (C)SFOs (summation over all irreps) :   967

 Specify PRINT SFO in the input file to get a full list

 Nr. of SFOs for ir.rep.           A :   967



 ================================
 (Slater-type)  F U N C T I O N S  ***  (Basis and Fit)  ***
 ================================
  

 Atom Type    1  (S)
 ==============

 Valence Basis Sets:  19
 -----------------------
   1 S 1600.000000
   1 S  320.000000
   1 S   80.000000
   1 S   32.000000
   1 S   19.400000
   1 S   14.350000
   2 S    5.900000
   2 S    4.250000
   2 P   19.400000
   2 P    8.050000
   2 P    4.550000
   3 S    3.450000
   3 S    2.250000
   3 S    1.500000
   3 P    2.650000
   3 P    1.600000
   3 P    1.000000
   3 D    2.100000
   4 F    2.100000

 Atom Type    2  (P)
 ==============

 Valence Basis Sets:  19
 -----------------------
   1 S 1500.000000
   1 S  300.000000
   1 S   75.000000
   1 S   30.000000
   1 S   18.000000
   1 S   13.350000
   2 S    5.600000
   2 S    4.050000
   2 P   18.000000
   2 P    7.450000
   2 P    4.100000
   3 S    2.700000
   3 S    1.850000
   3 S    1.300000
   3 P    2.300000
   3 P    1.350000
   3 P    0.850000
   3 D    1.900000
   4 F    2.000000

 Atom Type    3  (O)
 ==============

 Valence Basis Sets:  15
 -----------------------
   1 S  800.000000
   1 S  160.000000
   1 S   40.000000
   1 S   16.000000
   1 S    9.800000
   1 S    6.800000
   2 S    7.580000
   2 S    2.880000
   2 S    1.720000
   2 P    9.800000
   2 P    4.080000
   2 P    2.080000
   2 P    1.120000
   3 D    2.000000
   4 F    3.000000

 Atom Type    4  (C)
 ==============

 Valence Basis Sets:  15
 -----------------------
   1 S  600.000000
   1 S  120.000000
   1 S   30.000000
   1 S   12.000000
   1 S    7.680000
   1 S    5.000000
   2 S    1.280000
   2 S    2.100000
   2 S    4.600000
   2 P    7.680000
   2 P    0.820000
   2 P    1.480000
   2 P    2.940000
   3 D    2.200000
   4 F    3.300000

 Atom Type    5  (H)
 ==============

 Valence Basis Sets:   9
 -----------------------
   1 S  100.000000
   1 S   25.000000
   1 S    7.500000
   1 S    3.000000
   1 S    0.690000
   1 S    0.920000
   1 S    1.580000
   2 P    1.250000
   3 D    2.500000

 Atom Type    6  (N)
 ==============

 Valence Basis Sets:  15
 -----------------------
   1 S  700.000000
   1 S  140.000000
   1 S   35.000000
   1 S   14.000000
   1 S    8.740000
   1 S    5.900000
   2 S    5.150000
   2 S    2.500000
   2 S    1.500000
   2 P    8.740000
   2 P    3.680000
   2 P    1.880000
   2 P    1.000000
   3 D    2.200000
   4 F    3.300000


 BAS: List of all Elementary Cartesian Basis Functions
 =====================================================

 The numbering in the list below (to the right of the function characteristics) is referred
 to in print-outs of MO eigenvectors and Mulliken populations in the BAS representation
 (as contrasted to the SFO representation).

 Notes:
 1. The functions are characterized by a polynomial prefactor (powers of x,y,z and r) and
    an exponential decay factor alpha.
 2. Since the basis sets are specific for an atom TYPE, the individual functions occur on
    all atoms of that type.
 3. The word 'Core' in the left margin signals that it is a Core Function (CF) : not a
    degree of freedom in the valence set, but only used to ensure orthogonalization of
    the other valence basis functions on the frozen Core Orbitals.


 (power of) X  Y  Z  R     Alpha  on Atom
            ==========     =====     ==========

 S                                    1
                                  ---------------------------------------------------------------------------
            0  0  0  0  1600.000      1
            0  0  0  0   320.000      2
            0  0  0  0    80.000      3
            0  0  0  0    32.000      4
            0  0  0  0    19.400      5
            0  0  0  0    14.350      6
            0  0  0  1     5.900      7
            0  0  0  1     4.250      8
            1  0  0  0    19.400      9
            0  1  0  0    19.400     10
            0  0  1  0    19.400     11
            1  0  0  0     8.050     12
            0  1  0  0     8.050     13
            0  0  1  0     8.050     14
            1  0  0  0     4.550     15
            0  1  0  0     4.550     16
            0  0  1  0     4.550     17
            0  0  0  2     3.450     18
            0  0  0  2     2.250     19
            0  0  0  2     1.500     20
            1  0  0  1     2.650     21
            0  1  0  1     2.650     22
            0  0  1  1     2.650     23
            1  0  0  1     1.600     24
            0  1  0  1     1.600     25
            0  0  1  1     1.600     26
            1  0  0  1     1.000     27
            0  1  0  1     1.000     28
            0  0  1  1     1.000     29
            2  0  0  0     2.100     30
            1  1  0  0     2.100     31
            1  0  1  0     2.100     32
            0  2  0  0     2.100     33
            0  1  1  0     2.100     34
            0  0  2  0     2.100     35
            3  0  0  0     2.100     36
            2  1  0  0     2.100     37
            2  0  1  0     2.100     38
            1  2  0  0     2.100     39
            1  1  1  0     2.100     40
            1  0  2  0     2.100     41
            0  3  0  0     2.100     42
            0  2  1  0     2.100     43
            0  1  2  0     2.100     44
            0  0  3  0     2.100     45

 P                                    2
                                  ---------------------------------------------------------------------------
            0  0  0  0  1500.000     46
            0  0  0  0   300.000     47
            0  0  0  0    75.000     48
            0  0  0  0    30.000     49
            0  0  0  0    18.000     50
            0  0  0  0    13.350     51
            0  0  0  1     5.600     52
            0  0  0  1     4.050     53
            1  0  0  0    18.000     54
            0  1  0  0    18.000     55
            0  0  1  0    18.000     56
            1  0  0  0     7.450     57
            0  1  0  0     7.450     58
            0  0  1  0     7.450     59
            1  0  0  0     4.100     60
            0  1  0  0     4.100     61
            0  0  1  0     4.100     62
            0  0  0  2     2.700     63
            0  0  0  2     1.850     64
            0  0  0  2     1.300     65
            1  0  0  1     2.300     66
            0  1  0  1     2.300     67
            0  0  1  1     2.300     68
            1  0  0  1     1.350     69
            0  1  0  1     1.350     70
            0  0  1  1     1.350     71
            1  0  0  1     0.850     72
            0  1  0  1     0.850     73
            0  0  1  1     0.850     74
            2  0  0  0     1.900     75
            1  1  0  0     1.900     76
            1  0  1  0     1.900     77
            0  2  0  0     1.900     78
            0  1  1  0     1.900     79
            0  0  2  0     1.900     80
            3  0  0  0     2.000     81
            2  1  0  0     2.000     82
            2  0  1  0     2.000     83
            1  2  0  0     2.000     84
            1  1  1  0     2.000     85
            1  0  2  0     2.000     86
            0  3  0  0     2.000     87
            0  2  1  0     2.000     88
            0  1  2  0     2.000     89
            0  0  3  0     2.000     90

 O                                    3    4
                                  ---------------------------------------------------------------------------
            0  0  0  0   800.000     91  128
            0  0  0  0   160.000     92  129
            0  0  0  0    40.000     93  130
            0  0  0  0    16.000     94  131
            0  0  0  0     9.800     95  132
            0  0  0  0     6.800     96  133
            0  0  0  1     7.580     97  134
            0  0  0  1     2.880     98  135
            0  0  0  1     1.720     99  136
            1  0  0  0     9.800    100  137
            0  1  0  0     9.800    101  138
            0  0  1  0     9.800    102  139
            1  0  0  0     4.080    103  140
            0  1  0  0     4.080    104  141
            0  0  1  0     4.080    105  142
            1  0  0  0     2.080    106  143
            0  1  0  0     2.080    107  144
            0  0  1  0     2.080    108  145
            1  0  0  0     1.120    109  146
            0  1  0  0     1.120    110  147
            0  0  1  0     1.120    111  148
            2  0  0  0     2.000    112  149
            1  1  0  0     2.000    113  150
            1  0  1  0     2.000    114  151
            0  2  0  0     2.000    115  152
            0  1  1  0     2.000    116  153
            0  0  2  0     2.000    117  154
            3  0  0  0     3.000    118  155
            2  1  0  0     3.000    119  156
            2  0  1  0     3.000    120  157
            1  2  0  0     3.000    121  158
            1  1  1  0     3.000    122  159
            1  0  2  0     3.000    123  160
            0  3  0  0     3.000    124  161
            0  2  1  0     3.000    125  162
            0  1  2  0     3.000    126  163
            0  0  3  0     3.000    127  164

 C                                    5    6    7    8    9   10   11   12   13   14   15   16
                                  ---------------------------------------------------------------------------
            0  0  0  0   600.000    165  202  239  276  313  350  387  424  461  498  535  572
            0  0  0  0   120.000    166  203  240  277  314  351  388  425  462  499  536  573
            0  0  0  0    30.000    167  204  241  278  315  352  389  426  463  500  537  574
            0  0  0  0    12.000    168  205  242  279  316  353  390  427  464  501  538  575
            0  0  0  0     7.680    169  206  243  280  317  354  391  428  465  502  539  576
            0  0  0  0     5.000    170  207  244  281  318  355  392  429  466  503  540  577
            0  0  0  1     1.280    171  208  245  282  319  356  393  430  467  504  541  578
            0  0  0  1     2.100    172  209  246  283  320  357  394  431  468  505  542  579
            0  0  0  1     4.600    173  210  247  284  321  358  395  432  469  506  543  580
            1  0  0  0     7.680    174  211  248  285  322  359  396  433  470  507  544  581
            0  1  0  0     7.680    175  212  249  286  323  360  397  434  471  508  545  582
            0  0  1  0     7.680    176  213  250  287  324  361  398  435  472  509  546  583
            1  0  0  0     0.820    177  214  251  288  325  362  399  436  473  510  547  584
            0  1  0  0     0.820    178  215  252  289  326  363  400  437  474  511  548  585
            0  0  1  0     0.820    179  216  253  290  327  364  401  438  475  512  549  586
            1  0  0  0     1.480    180  217  254  291  328  365  402  439  476  513  550  587
            0  1  0  0     1.480    181  218  255  292  329  366  403  440  477  514  551  588
            0  0  1  0     1.480    182  219  256  293  330  367  404  441  478  515  552  589
            1  0  0  0     2.940    183  220  257  294  331  368  405  442  479  516  553  590
            0  1  0  0     2.940    184  221  258  295  332  369  406  443  480  517  554  591
            0  0  1  0     2.940    185  222  259  296  333  370  407  444  481  518  555  592
            2  0  0  0     2.200    186  223  260  297  334  371  408  445  482  519  556  593
            1  1  0  0     2.200    187  224  261  298  335  372  409  446  483  520  557  594
            1  0  1  0     2.200    188  225  262  299  336  373  410  447  484  521  558  595
            0  2  0  0     2.200    189  226  263  300  337  374  411  448  485  522  559  596
            0  1  1  0     2.200    190  227  264  301  338  375  412  449  486  523  560  597
            0  0  2  0     2.200    191  228  265  302  339  376  413  450  487  524  561  598
            3  0  0  0     3.300    192  229  266  303  340  377  414  451  488  525  562  599
            2  1  0  0     3.300    193  230  267  304  341  378  415  452  489  526  563  600
            2  0  1  0     3.300    194  231  268  305  342  379  416  453  490  527  564  601
            1  2  0  0     3.300    195  232  269  306  343  380  417  454  491  528  565  602
            1  1  1  0     3.300    196  233  270  307  344  381  418  455  492  529  566  603
            1  0  2  0     3.300    197  234  271  308  345  382  419  456  493  530  567  604
            0  3  0  0     3.300    198  235  272  309  346  383  420  457  494  531  568  605
            0  2  1  0     3.300    199  236  273  310  347  384  421  458  495  532  569  606
            0  1  2  0     3.300    200  237  274  311  348  385  422  459  496  533  570  607
            0  0  3  0     3.300    201  238  275  312  349  386  423  460  497  534  571  608

 H                                   17   18   19   20   21   22   23   24   25   26   27   28   29   30   31
                                     32   33   34   35   36   37   38   39   40   41   42
                                  ---------------------------------------------------------------------------
            0  0  0  0   100.000    609  625  641  657  673  689  705  721  737  753  769  785  801  817  833
                                    849  865  881  897  913  929  945  961  977  993 1009
            0  0  0  0    25.000    610  626  642  658  674  690  706  722  738  754  770  786  802  818  834
                                    850  866  882  898  914  930  946  962  978  994 1010
            0  0  0  0     7.500    611  627  643  659  675  691  707  723  739  755  771  787  803  819  835
                                    851  867  883  899  915  931  947  963  979  995 1011
            0  0  0  0     3.000    612  628  644  660  676  692  708  724  740  756  772  788  804  820  836
                                    852  868  884  900  916  932  948  964  980  996 1012
            0  0  0  0     0.690    613  629  645  661  677  693  709  725  741  757  773  789  805  821  837
                                    853  869  885  901  917  933  949  965  981  997 1013
            0  0  0  0     0.920    614  630  646  662  678  694  710  726  742  758  774  790  806  822  838
                                    854  870  886  902  918  934  950  966  982  998 1014
            0  0  0  0     1.580    615  631  647  663  679  695  711  727  743  759  775  791  807  823  839
                                    855  871  887  903  919  935  951  967  983  999 1015
            1  0  0  0     1.250    616  632  648  664  680  696  712  728  744  760  776  792  808  824  840
                                    856  872  888  904  920  936  952  968  984 1000 1016
            0  1  0  0     1.250    617  633  649  665  681  697  713  729  745  761  777  793  809  825  841
                                    857  873  889  905  921  937  953  969  985 1001 1017
            0  0  1  0     1.250    618  634  650  666  682  698  714  730  746  762  778  794  810  826  842
                                    858  874  890  906  922  938  954  970  986 1002 1018
            2  0  0  0     2.500    619  635  651  667  683  699  715  731  747  763  779  795  811  827  843
                                    859  875  891  907  923  939  955  971  987 1003 1019
            1  1  0  0     2.500    620  636  652  668  684  700  716  732  748  764  780  796  812  828  844
                                    860  876  892  908  924  940  956  972  988 1004 1020
            1  0  1  0     2.500    621  637  653  669  685  701  717  733  749  765  781  797  813  829  845
                                    861  877  893  909  925  941  957  973  989 1005 1021
            0  2  0  0     2.500    622  638  654  670  686  702  718  734  750  766  782  798  814  830  846
                                    862  878  894  910  926  942  958  974  990 1006 1022
            0  1  1  0     2.500    623  639  655  671  687  703  719  735  751  767  783  799  815  831  847
                                    863  879  895  911  927  943  959  975  991 1007 1023
            0  0  2  0     2.500    624  640  656  672  688  704  720  736  752  768  784  800  816  832  848
                                    864  880  896  912  928  944  960  976  992 1008 1024

 N                                   43
                                  ---------------------------------------------------------------------------
            0  0  0  0   700.000   1025
            0  0  0  0   140.000   1026
            0  0  0  0    35.000   1027
            0  0  0  0    14.000   1028
            0  0  0  0     8.740   1029
            0  0  0  0     5.900   1030
            0  0  0  1     5.150   1031
            0  0  0  1     2.500   1032
            0  0  0  1     1.500   1033
            1  0  0  0     8.740   1034
            0  1  0  0     8.740   1035
            0  0  1  0     8.740   1036
            1  0  0  0     3.680   1037
            0  1  0  0     3.680   1038
            0  0  1  0     3.680   1039
            1  0  0  0     1.880   1040
            0  1  0  0     1.880   1041
            0  0  1  0     1.880   1042
            1  0  0  0     1.000   1043
            0  1  0  0     1.000   1044
            0  0  1  0     1.000   1045
            2  0  0  0     2.200   1046
            1  1  0  0     2.200   1047
            1  0  1  0     2.200   1048
            0  2  0  0     2.200   1049
            0  1  1  0     2.200   1050
            0  0  2  0     2.200   1051
            3  0  0  0     3.300   1052
            2  1  0  0     3.300   1053
            2  0  1  0     3.300   1054
            1  2  0  0     3.300   1055
            1  1  1  0     3.300   1056
            1  0  2  0     3.300   1057
            0  3  0  0     3.300   1058
            0  2  1  0     3.300   1059
            0  1  2  0     3.300   1060
            0  0  3  0     3.300   1061

 Total number of charge fitting functions (nprimf)      5850
 Total number of Cartesian basis functions (naos)       1061
 Total number of Cartesian core functions  (ncos)          0

1
 ***************************************************************************************************



                                              ***********************
                                              *  T E C H N I C A L  *
                                              ***********************
  



 =============================================================
 P A R A L L E L I Z A T I O N  and  V E C T O R I Z A T I O N
 =============================================================
  
 Nr of parallel processes:                               12
 Maximum vector length in NumInt loops:                 128



 =====================
 S C F   U P D A T E S
 =====================
  
 Max. nr. of cycles:                               300
 Convergence criterion:                              0.0000010000
   secondary criterion:                              0.0010000000

 Mix parameter (when DIIS does not apply):           0.2000000000
 Mixed ADIIS+SDIIS will be used                  
    Max number of expansion vectors:                10
    Pure ADIIS when Max([F,P]) is above              0.1000000000
    Pure SDIIS when Max([F,P]) is below              0.0010000000
 Automatic ElectronSmearing (in case of problematic SCF convergence) disabled



 =================
 P R E C I S I O N  ***  (General: NumInt, NeglectFunctionTails, ...)  ***
 =================
  

 NumInt:           Target precision:                 6.0000000000
 -------           Initial precision:                6.0000000000
                   Min. precision (optimization):    6.0000000000

 Neglect Functions:          Basis functions:        0.1000000000E-07
 ------------------          Fit functions:          0.1000000000E-07



 ===========================
 L I N E A R   S C A L I N G
 ===========================
  

 Cut-off radii density fit:                        0.1000000000E-09
 Overlap cut-off criterion AO matrix elements:     0.1000000000E-07
 Cut-offs for Coulomb potential and fitted density:0.1000000000E-09
 Cut-off criterion for Coulomb multipole terms:    0.1000000000E-09
 Progressive Convergence parameter:                 0.000000000    
1
 ***************************************************************************************************



                                            ***************************
                                            *  C O M P U T A T I O N  *
                                            ***************************
  

 Number of elements of the density matrix on this node (used, total):     47116    563391



 ===========================================
 Numerical Integration : Fuzzy Cells (Becke)
 ===========================================
  
 Becke grid quality: GOOD           
  
 Lebedev angular grid order:             min:  11 max:  31
 Nr. of radial points:                   min: 112 max: 236

 Total nr. of points:    1329573
 Nr. of blocks:            10388
 Block length:               128
 Nr. of dummy points:         91


 Test of Precision of the Numerical Integration Grid
 ===================================================

 Integral of the Total Core Density:                   0.00000000000000


 -------------------------------------------
  COSMO surface
  Area             =         1122.899
  Volume           =         2405.103
  Number of Points =         2629
 -------------------------------------------



 ========================
 Density Fitting (zlmFit)
 ========================
  
 ZlmFit Fit Quality: GOOD           
  
 Max L-expansion:                        min:   8 max:   9
 Nr. of radial interpolation points:     min: 180 max: 378



 =====
 S C F  ***  ScaSCF  ***
 =====
  
 Initial density matrix is calculated as sum of fragments

 CYCLE    1
 SCF Error: norm([F,P])=     10.661016128826, max([F,P])=      1.040466867336
 orbitals (Q,E):
 ---------------
 A :67...86          ( 2.00    -0.4728)  ( 2.00    -0.4660)  ( 2.00    -0.4512)  ( 2.00    -0.4458)
                     ( 2.00    -0.4248)  ( 2.00    -0.4088)  ( 2.00    -0.4025)  ( 2.00    -0.3617)
                     ( 2.00    -0.2971)  ( 2.00    -0.2815)  ( 0.00    -0.1132)  ( 0.00    -0.1017)
                     ( 0.00    -0.0811)  ( 0.00    -0.0729)  ( 0.00    -0.0687)  ( 0.00    -0.0638)
                     ( 0.00    -0.0598)  ( 0.00    -0.0438)  ( 0.00    -0.0414)  ( 0.00    -0.0394)

 CYCLE    2
   MIX coefficients:  0.8000  0.2000
 SCF Error: norm([F,P])=      1.670148508811, max([F,P])=      0.190564812306
 orbitals (Q,E):
 ---------------
 A :67...77          ( 2.00    -0.4131)  ( 2.00    -0.4050)  ( 2.00    -0.3952)  ( 2.00    -0.3895)
                     ( 2.00    -0.3771)  ( 2.00    -0.3743)  ( 2.00    -0.3492)  ( 2.00    -0.2890)
                     ( 2.00    -0.2781)  ( 2.00    -0.2644)  ( 0.00    -0.0850)

 CYCLE    3
  SDIIS (wt  0.000): -1.0219  2.0219
 A-DIIS (wt  1.000):  0.0000  1.0000
  DIIS coefficients:  0.0000  1.0000
 SCF Error: norm([F,P])=      0.890922777691, max([F,P])=      0.099935542199
 orbitals (Q,E):
 ---------------
 A :67...77          ( 2.00    -0.2342)  ( 2.00    -0.2325)  ( 2.00    -0.2246)  ( 2.00    -0.2172)
                     ( 2.00    -0.2118)  ( 2.00    -0.2091)  ( 2.00    -0.1925)  ( 2.00    -0.1750)
                     ( 2.00    -0.1649)  ( 2.00    -0.0908)  ( 0.00    -0.0183)

 CYCLE    4
  SDIIS (wt  0.000):  0.1207  0.4437  0.4356
 A-DIIS (wt  1.000):  0.0000  0.6720  0.3280
  DIIS coefficients:  0.0000  0.6720  0.3280
 SCF Error: norm([F,P])=      1.352969354686, max([F,P])=      0.163684241604
 orbitals (Q,E):
 ---------------
 A :67...77          ( 2.00    -0.2970)  ( 2.00    -0.2877)  ( 2.00    -0.2836)  ( 2.00    -0.2769)
                     ( 2.00    -0.2734)  ( 2.00    -0.2683)  ( 2.00    -0.2450)  ( 2.00    -0.2019)
                     ( 2.00    -0.1958)  ( 2.00    -0.1745)  ( 0.00    -0.0243)

 CYCLE    5
  SDIIS (wt  0.728):  0.0510  0.2329  0.1500  0.5660
 A-DIIS (wt  0.272):  0.0000  0.0000  0.0000  1.0000
  DIIS coefficients:  0.0371  0.1696  0.1093  0.6839
 SCF Error: norm([F,P])=      0.233793135726, max([F,P])=      0.027895733068
 orbitals (Q,E):
 ---------------
 A :67...77          ( 2.00    -0.2991)  ( 2.00    -0.2972)  ( 2.00    -0.2960)  ( 2.00    -0.2910)
                     ( 2.00    -0.2859)  ( 2.00    -0.2793)  ( 2.00    -0.2533)  ( 2.00    -0.2185)
                     ( 2.00    -0.2047)  ( 2.00    -0.1699)  ( 0.00    -0.0312)

 CYCLE    6
  SDIIS (wt  0.783): -0.0015  0.0810  0.0163  0.4486  0.4556
 A-DIIS (wt  0.217):  0.0000  0.0000  0.0000  0.3145  0.6855
  DIIS coefficients: -0.0012  0.0634  0.0128  0.4195  0.5054
 SCF Error: norm([F,P])=      0.162378532166, max([F,P])=      0.022447502432
 orbitals (Q,E):
 ---------------
 A :67...77          ( 2.00    -0.3042)  ( 2.00    -0.2983)  ( 2.00    -0.2946)  ( 2.00    -0.2886)
                     ( 2.00    -0.2840)  ( 2.00    -0.2788)  ( 2.00    -0.2545)  ( 2.00    -0.2139)
                     ( 2.00    -0.2049)  ( 2.00    -0.1775)  ( 0.00    -0.0314)

 CYCLE    7
  SDIIS (wt  0.946): -0.0112  0.0335 -0.0006  0.1862  0.2869  0.5053
 A-DIIS (wt  0.054):  0.0000  0.0000  0.0000  0.0000  0.0000  1.0000
  DIIS coefficients: -0.0106  0.0317 -0.0006  0.1761  0.2714  0.5320
 SCF Error: norm([F,P])=      0.038842764570, max([F,P])=      0.006332016003
 orbitals (Q,E):
 ---------------
 A :67...77          ( 2.00    -0.3004)  ( 2.00    -0.2974)  ( 2.00    -0.2943)  ( 2.00    -0.2883)
                     ( 2.00    -0.2840)  ( 2.00    -0.2780)  ( 2.00    -0.2527)  ( 2.00    -0.2135)
                     ( 2.00    -0.2032)  ( 2.00    -0.1756)  ( 0.00    -0.0298)

 CYCLE    8
  SDIIS (wt  0.980): -0.0025  0.0056 -0.0011  0.0582  0.1105  0.3406  0.4888
 A-DIIS (wt  0.020):  0.0000  0.0000  0.0000  0.0000  0.0000  0.1178  0.8822
  DIIS coefficients: -0.0025  0.0055 -0.0011  0.0570  0.1083  0.3362  0.4965
 SCF Error: norm([F,P])=      0.013643587210, max([F,P])=      0.002935339383
 orbitals (Q,E):
 ---------------
 A :67...77          ( 2.00    -0.3015)  ( 2.00    -0.2976)  ( 2.00    -0.2942)  ( 2.00    -0.2883)
                     ( 2.00    -0.2840)  ( 2.00    -0.2781)  ( 2.00    -0.2532)  ( 2.00    -0.2136)
                     ( 2.00    -0.2037)  ( 2.00    -0.1756)  ( 0.00    -0.0302)

 CYCLE    9
  SDIIS (wt  1.000): -0.0001  0.0001 -0.0004  0.0177  0.0369  0.1432  0.2716  0.5311
  DIIS coefficients: -0.0001  0.0001 -0.0004  0.0177  0.0369  0.1432  0.2716  0.5311
 SCF Error: norm([F,P])=      0.002883175016, max([F,P])=      0.000505258905
 orbitals (Q,E):
 ---------------
 A :67...77          ( 2.00    -0.3014)  ( 2.00    -0.2976)  ( 2.00    -0.2943)  ( 2.00    -0.2883)
                     ( 2.00    -0.2839)  ( 2.00    -0.2781)  ( 2.00    -0.2532)  ( 2.00    -0.2137)
                     ( 2.00    -0.2037)  ( 2.00    -0.1758)  ( 0.00    -0.0303)

 CYCLE   10
  SDIIS (wt  1.000):  0.0003 -0.0009 -0.0001  0.0011  0.0036  0.0275  0.0797  0.3190  0.5699
  DIIS coefficients:  0.0003 -0.0009 -0.0001  0.0011  0.0036  0.0275  0.0797  0.3190  0.5699
 SCF Error: norm([F,P])=      0.001142597869, max([F,P])=      0.000172104416
 orbitals (Q,E):
 ---------------
 A :67...77          ( 2.00    -0.3014)  ( 2.00    -0.2976)  ( 2.00    -0.2942)  ( 2.00    -0.2883)
                     ( 2.00    -0.2839)  ( 2.00    -0.2781)  ( 2.00    -0.2532)  ( 2.00    -0.2136)
                     ( 2.00    -0.2037)  ( 2.00    -0.1757)  ( 0.00    -0.0302)

 CYCLE   11
  SDIIS (wt  1.000):  0.0001 -0.0004 -0.0000 -0.0009 -0.0012  0.0027  0.0225  0.1379  0.3453  0.4939
  DIIS coefficients:  0.0001 -0.0004 -0.0000 -0.0009 -0.0012  0.0027  0.0225  0.1379  0.3453  0.4939
 SCF Error: norm([F,P])=      0.000409923297, max([F,P])=      0.000065221387
 orbitals (Q,E):
 ---------------
 A :67...77          ( 2.00    -0.3014)  ( 2.00    -0.2976)  ( 2.00    -0.2942)  ( 2.00    -0.2883)
                     ( 2.00    -0.2839)  ( 2.00    -0.2781)  ( 2.00    -0.2532)  ( 2.00    -0.2136)
                     ( 2.00    -0.2037)  ( 2.00    -0.1757)  ( 0.00    -0.0302)

 CYCLE   12
  SDIIS (wt  1.000): -0.0001 -0.0000 -0.0006 -0.0008 -0.0007  0.0064  0.0513  0.1553  0.3052  0.4840
  DIIS coefficients: -0.0001 -0.0000 -0.0006 -0.0008 -0.0007  0.0064  0.0513  0.1553  0.3052  0.4840
 SCF Error: norm([F,P])=      0.000137229883, max([F,P])=      0.000031378118
 orbitals (Q,E):
 ---------------
 A :67...77          ( 2.00    -0.3014)  ( 2.00    -0.2976)  ( 2.00    -0.2942)  ( 2.00    -0.2883)
                     ( 2.00    -0.2839)  ( 2.00    -0.2781)  ( 2.00    -0.2532)  ( 2.00    -0.2136)
                     ( 2.00    -0.2037)  ( 2.00    -0.1757)  ( 0.00    -0.0302)

 CYCLE   13
  SDIIS (wt  1.000):  0.0000 -0.0001 -0.0002 -0.0007  0.0007  0.0102  0.0418  0.1105  0.2933  0.5446
  DIIS coefficients:  0.0000 -0.0001 -0.0002 -0.0007  0.0007  0.0102  0.0418  0.1105  0.2933  0.5446
 SCF Error: norm([F,P])=      0.000046646697, max([F,P])=      0.000008016565
 orbitals (Q,E):
 ---------------
 A :67...77          ( 2.00    -0.3014)  ( 2.00    -0.2976)  ( 2.00    -0.2942)  ( 2.00    -0.2883)
                     ( 2.00    -0.2839)  ( 2.00    -0.2781)  ( 2.00    -0.2532)  ( 2.00    -0.2136)
                     ( 2.00    -0.2037)  ( 2.00    -0.1757)  ( 0.00    -0.0302)

 CYCLE   14
  SDIIS (wt  1.000): -0.0000 -0.0000 -0.0002 -0.0001  0.0005  0.0061  0.0259  0.1059  0.3295  0.5324
  DIIS coefficients: -0.0000 -0.0000 -0.0002 -0.0001  0.0005  0.0061  0.0259  0.1059  0.3295  0.5324
 SCF Error: norm([F,P])=      0.000018457916, max([F,P])=      0.000002673831
 orbitals (Q,E):
 ---------------
 A :67...77          ( 2.00    -0.3014)  ( 2.00    -0.2976)  ( 2.00    -0.2942)  ( 2.00    -0.2883)
                     ( 2.00    -0.2839)  ( 2.00    -0.2781)  ( 2.00    -0.2532)  ( 2.00    -0.2136)
                     ( 2.00    -0.2037)  ( 2.00    -0.1757)  ( 0.00    -0.0302)

 CYCLE   15
  SDIIS (wt  1.000):  0.0000 -0.0000  0.0000  0.0002  0.0024  0.0113  0.0486  0.1563  0.2905  0.4907
  DIIS coefficients:  0.0000 -0.0000  0.0000  0.0002  0.0024  0.0113  0.0486  0.1563  0.2905  0.4907
 SCF Error: norm([F,P])=      0.000004568718, max([F,P])=      0.000000652944
 orbitals (Q,E):
 ---------------
 A :67...77          ( 2.00    -0.3014)  ( 2.00    -0.2976)  ( 2.00    -0.2942)  ( 2.00    -0.2883)
                     ( 2.00    -0.2839)  ( 2.00    -0.2781)  ( 2.00    -0.2532)  ( 2.00    -0.2136)
                     ( 2.00    -0.2037)  ( 2.00    -0.1757)  ( 0.00    -0.0302)

 SCF CONVERGED
 cosmo_calcen: 0.5 (esolb+esolc) (Hartrees) =   -0.008538

 Solvation energy (screening term,uncorrected) =     -5.357765 kcal/mol

 Solvation energy (dispersion and cavitation terms) =      1.683769 kcal/mol
 Solvation Energy Contributions (Hartrees)
          esola   esolb+esolc
     0.00853814   -0.01707628
 esol last cycle   -0.00853814

 CYCLE   16
1
 ***************************************************************************************************



                                                *******************
                                                *  R E S U L T S  *
                                                *******************
  
 *** Using FIT density in Focky
  SDIIS (wt  1.000): -0.0000 -0.0001 -0.0003 -0.0004  0.0006  0.0075  0.0325  0.0822  0.2544  0.6236
  DIIS coefficients: -0.0000 -0.0001 -0.0003 -0.0004  0.0006  0.0075  0.0325  0.0822  0.2544  0.6236
 SCF Error: norm([F,P])=      0.000001441539, max([F,P])=      0.000000276399

 Scaled ZORA Orbital Energies, per Irrep and Spin:
 =================================================
                        Occup              E (au)              E (eV)       Diff (eV) with prev. cycle
                        -----      --------------------        ------       --------------------------
 A
              67        2.000     -0.30139429572329E+00        -8.201               7.25E-07
              68        2.000     -0.29759294028028E+00        -8.098               1.43E-06
              69        2.000     -0.29423057052499E+00        -8.006               2.45E-06
              70        2.000     -0.28829315747540E+00        -7.845               1.24E-06
              71        2.000     -0.28392841266216E+00        -7.726               2.07E-06
              72        2.000     -0.27810810977129E+00        -7.568               1.20E-06
              73        2.000     -0.25316530997664E+00        -6.889               8.60E-07
              74        2.000     -0.21363632013041E+00        -5.813              -1.65E-06
              75        2.000     -0.20366254683946E+00        -5.542              -8.16E-07
              76        2.000     -0.17568436505478E+00        -4.781               2.50E-06
              77        0.000     -0.30232129844238E-01        -0.823
              78        0.000     -0.26570867225109E-01        -0.723
              79        0.000     -0.19106775415680E-02        -0.052
              80        0.000      0.15672474580686E-02         0.043
              81        0.000      0.10820459430890E-01         0.294
              82        0.000      0.13873748994002E-01         0.378
              83        0.000      0.18169872672050E-01         0.494
              84        0.000      0.21502185406374E-01         0.585
              85        0.000      0.22817172510422E-01         0.621
              86        0.000      0.27399044452394E-01         0.746
  
 HOMO :       76 A                -0.17568436505478E+00
 LUMO :       77 A                -0.30232129844238E-01
  
 cosmo_calcen: 0.5 (esolb+esolc) (Hartrees) =   -0.008538

 Solvation energy (screening term,uncorrected) =     -5.357770 kcal/mol

 Solvation energy (dispersion and cavitation terms) =      1.683769 kcal/mol
 Solvation Energy Contributions (Hartrees)
          esola   esolb+esolc
     0.00853815   -0.01707630
 esol last cycle   -0.00853815


 All Electron Calculation, thus no Orbital Energies of the Core Orbitals are calculated


 Fit test: (difference of exact and fit density, squared integrated, result summed over spins)
         Sum-of-Fragments:                             0.00000000002031
         Orthogonalized Fragments:                     0.00004320446066
         SCF:                                          0.00012439342796



 ==========================
 Electron Density at Nuclei
 ==========================
  
 The electron density is calculated at points on a small sphere around the center of a nucleus.
 The printed electron density is the average electron density on these points.
 The radius of the sphere is the printed approximate finite nuclear radius.
 Note: ZORA-4 density is used, which includes small component density

         Atom        Nuclear Radius (Angstrom)             Electron Density (a.u.)
         ----        -------------------------             -----------------------
     1)   S                 0.0000416234                             2906.94138
     2)   P                 0.0000412627                             2356.71047
     3)   O                 0.0000345546                              317.99392
     4)   O                 0.0000345546                              317.96077
     5)   C                 0.0000320678                              127.92150
     6)   C                 0.0000320678                              127.92522
     7)   C                 0.0000320678                              127.88730
     8)   C                 0.0000320678                              127.88290
     9)   C                 0.0000320678                              127.89301
    10)   C                 0.0000320678                              127.88299
    11)   H                 0.0000181514                                0.48241
    12)   H                 0.0000181514                                0.48423
    13)   H                 0.0000181514                                0.48243
    14)   H                 0.0000181514                                0.48452
    15)   H                 0.0000181514                                0.48196
    16)   H                 0.0000181514                                0.48272
    17)   H                 0.0000181514                                0.48316
    18)   H                 0.0000181514                                0.48377
    19)   H                 0.0000181514                                0.48255
    20)   H                 0.0000181514                                0.48187
    21)   H                 0.0000181514                                0.48273
    22)   H                 0.0000181514                                0.48471
    23)   C                 0.0000320678                              127.93578
    24)   C                 0.0000320678                              127.91004
    25)   N                 0.0000333706                              208.19845
    26)   C                 0.0000320678                              127.87527
    27)   C                 0.0000320678                              127.88854
    28)   C                 0.0000320678                              127.87449
    29)   C                 0.0000320678                              127.88194
    30)   H                 0.0000181514                                0.48049
    31)   H                 0.0000181514                                0.48417
    32)   H                 0.0000181514                                0.49071
    33)   H                 0.0000181514                                0.48597
    34)   H                 0.0000181514                                0.48731
    35)   H                 0.0000181514                                0.49224
    36)   H                 0.0000181514                                0.48440
    37)   H                 0.0000181514                                0.48237
    38)   H                 0.0000181514                                0.48621
    39)   H                 0.0000181514                                0.48894
    40)   H                 0.0000181514                                0.49023
    41)   H                 0.0000181514                                0.48640
    42)   H                 0.0000181514                                0.48278
    43)   H                 0.0000181514                                0.48598



 =======================================
 M U L L I K E N   P O P U L A T I O N S
 =======================================
  
 The survey below gives for each atom:
 a) the total charge (Z minus electrons)
 b) the net spin polarization (nr of electrons spin-A minus spin-B)
 c) for each spin the atomic electron valence density (integrated) per L-value.

 Atom              Charge    Spin density          S         P         D         F
 ----              ------    ------------       ------    ------    ------    ------
 1 S              -0.1219                       5.8538   10.1550    0.0945    0.0185
 2 P               0.5119                       5.6590    8.3708    0.3772    0.0811
 3 O              -0.5042                       3.8252    4.6119    0.0615    0.0055
 4 O              -0.5145                       3.8248    4.6236    0.0607    0.0054
 5 C               0.2661                       3.1450    2.4600    0.1221    0.0068
 6 C               0.2817                       3.1433    2.4451    0.1231    0.0069
 7 C               0.4787                       2.9685    2.5094    0.0417    0.0017
 8 C               0.4266                       2.9791    2.5507    0.0419    0.0018
 9 C               0.4546                       2.9669    2.5349    0.0418    0.0017
 10 C              0.4237                       2.9810    2.5518    0.0418    0.0018
 11 H             -0.1360                       1.0505    0.0810    0.0044    0.0000
 12 H             -0.1495                       1.0581    0.0868    0.0045    0.0000
 13 H             -0.1687                       1.0847    0.0797    0.0043    0.0000
 14 H             -0.1369                       1.0516    0.0809    0.0044    0.0000
 15 H             -0.1214                       1.0371    0.0800    0.0043    0.0000
 16 H             -0.1547                       1.0714    0.0790    0.0042    0.0000
 17 H             -0.1273                       1.0421    0.0808    0.0044    0.0000
 18 H             -0.1559                       1.0700    0.0815    0.0044    0.0000
 19 H             -0.1620                       1.0787    0.0790    0.0043    0.0000
 20 H             -0.1221                       1.0379    0.0799    0.0043    0.0000
 21 H             -0.1535                       1.0702    0.0791    0.0042    0.0000
 22 H             -0.1385                       1.0531    0.0810    0.0044    0.0000
 23 C              0.0917                       3.1204    2.7253    0.0601    0.0025
 24 C              0.5025                       2.9987    2.4127    0.0822    0.0039
 25 N             -0.3594                       3.5273    3.7457    0.0813    0.0051
 26 C              0.4576                       3.0097    2.4493    0.0795    0.0039
 27 C              0.3874                       2.9703    2.5972    0.0434    0.0017
 28 C              0.3808                       2.9846    2.5897    0.0432    0.0018
 29 C              0.4399                       3.0188    2.4547    0.0827    0.0039
 30 H             -0.0882                       1.0095    0.0746    0.0041    0.0000
 31 H             -0.0586                       0.9798    0.0747    0.0041    0.0000
 32 H             -0.1486                       1.0695    0.0748    0.0044    0.0000
 33 H             -0.1593                       1.0836    0.0716    0.0041    0.0000
 34 H             -0.1615                       1.0864    0.0711    0.0040    0.0000
 35 H             -0.1490                       1.0715    0.0731    0.0043    0.0000
 36 H             -0.1251                       1.0438    0.0771    0.0041    0.0000
 37 H             -0.1613                       1.0804    0.0767    0.0042    0.0000
 38 H             -0.1191                       1.0327    0.0820    0.0043    0.0000
 39 H             -0.1605                       1.0781    0.0781    0.0044    0.0000
 40 H             -0.1596                       1.0766    0.0786    0.0045    0.0000
 41 H             -0.1176                       1.0342    0.0792    0.0042    0.0000
 42 H             -0.1425                       1.0616    0.0768    0.0041    0.0000
 43 H             -0.1259                       1.0432    0.0785    0.0042    0.0000

 Populations of individual BAS functions
 ----------------------------------------
 1 S            0.0000  0.0000  0.0007  0.0082  0.4910  1.4516  1.7275  0.2716  0.0080  0.0079
                0.0079  0.7472  0.7566  0.7532  1.2648  1.2514  1.2556  0.1968  1.3414  0.3649
                0.2920  0.4111  0.3715  0.8765  1.1205  0.9813 -0.1184  0.1192  0.0486  0.0306
                0.0162  0.0307 -0.0047  0.0134  0.0084  0.0103  0.0078  0.0099 -0.0082  0.0024
                0.0046 -0.0092 -0.0061  0.0060  0.0010
 2 P            0.0000  0.0000  0.0006  0.0081  0.5306  1.4135  1.5131  0.5152  0.0080  0.0078
                0.0079  0.7527  0.7511  0.7552  1.2611  1.2596  1.2555  0.3298  1.3197  0.0283
                0.2955  0.2442  0.3194  0.5363  0.3968  0.6653 -0.0675 -0.0512 -0.0270  0.0435
                0.0927  0.0855  0.0546  0.0657  0.0352  0.0085  0.0185  0.0099  0.0160  0.0122
                0.0019 -0.0018  0.0120  0.0073 -0.0034
 3 O            0.0000  0.0000  0.0005  0.0015  0.4606  1.6677 -0.1658  1.0179  0.8429  0.0031
                0.0035  0.0035  0.1996  0.2584  0.2530  0.9050  1.0070  0.9924  0.1573  0.4233
                0.4059  0.0303  0.0146  0.0149 -0.0034  0.0089 -0.0037  0.0094  0.0080  0.0084
               -0.0035  0.0009 -0.0040 -0.0047 -0.0010 -0.0020 -0.0059
 4 O            0.0000  0.0000  0.0005  0.0016  0.4588  1.6692 -0.1656  1.0155  0.8448  0.0030
                0.0035  0.0036  0.1986  0.2494  0.2651  0.8866  0.9924  1.0190  0.1977  0.3747
                0.4302  0.0261  0.0146  0.0141  0.0037  0.0093 -0.0071  0.0100  0.0056  0.0072
               -0.0025  0.0006 -0.0057 -0.0002  0.0013 -0.0037 -0.0071
 5 C            0.0000 -0.0000  0.0006 -0.0075  0.4698  1.5897  0.3053  0.9174 -0.1304  0.0023
                0.0026  0.0025 -0.1571 -0.1863 -0.1681  0.8122  0.9052  0.8921  0.1122  0.1239
                0.1185  0.0183  0.0204  0.0278  0.0173  0.0212  0.0171  0.0008  0.0008  0.0016
                0.0000  0.0010  0.0019  0.0004  0.0007  0.0001 -0.0005
 6 C            0.0000 -0.0000  0.0006 -0.0077  0.4707  1.5888  0.3025  0.9187 -0.1303  0.0019
                0.0027  0.0028 -0.1153 -0.2027 -0.2143  0.6888  0.9447  0.9826  0.0985  0.1280
                0.1274  0.0182  0.0227  0.0271  0.0181  0.0201  0.0169  0.0028  0.0004  0.0008
               -0.0007  0.0005 -0.0006  0.0014  0.0013  0.0002  0.0009
 7 C            0.0000 -0.0000  0.0007 -0.0098  0.4833  1.5750  0.0856  0.9668 -0.1332  0.0025
                0.0026  0.0024 -0.2934 -0.2954 -0.2438  1.0051  0.9935  0.9311  0.1380  0.1339
                0.1328  0.0045  0.0027  0.0124  0.0077  0.0077  0.0068 -0.0005 -0.0010  0.0001
               -0.0008  0.0002  0.0017  0.0009 -0.0003  0.0007  0.0010
 8 C            0.0000 -0.0000  0.0007 -0.0098  0.4832  1.5752  0.0978  0.9651 -0.1330  0.0023
                0.0026  0.0025 -0.1909 -0.2947 -0.2797  0.9062  1.0115  0.9825  0.1348  0.1366
                0.1368  0.0076  0.0069  0.0095  0.0063  0.0050  0.0065  0.0015  0.0004  0.0009
               -0.0009  0.0002 -0.0001  0.0003 -0.0008 -0.0002  0.0004
 9 C            0.0000 -0.0000  0.0007 -0.0101  0.4842  1.5741  0.0832  0.9677 -0.1330  0.0025
                0.0025  0.0024 -0.2732 -0.2822 -0.2291  0.9957  0.9821  0.9273  0.1382  0.1343
                0.1343  0.0070  0.0053  0.0051  0.0059  0.0093  0.0092  0.0004 -0.0006 -0.0010
               -0.0001  0.0002  0.0002  0.0000  0.0001  0.0010  0.0015
 10 C           0.0000 -0.0000  0.0007 -0.0099  0.4834  1.5750  0.0997  0.9651 -0.1330  0.0025
                0.0026  0.0024 -0.2521 -0.2761 -0.2380  0.9776  0.9923  0.9327  0.1381  0.1358
                0.1339  0.0077  0.0035  0.0058  0.0072  0.0084  0.0092  0.0007 -0.0008 -0.0006
               -0.0007  0.0002  0.0005  0.0005 -0.0003  0.0007  0.0015
 23 C           0.0000 -0.0000  0.0007 -0.0090  0.4790  1.5765  0.2743  0.9225 -0.1236  0.0023
                0.0026  0.0025 -0.1454 -0.0999 -0.1303  0.8327  0.9313  0.9418  0.1106  0.1402
                0.1369  0.0096  0.0152  0.0101  0.0101  0.0065  0.0086  0.0013  0.0014  0.0005
                0.0001  0.0003 -0.0007  0.0004 -0.0004 -0.0010  0.0004
 24 C           0.0000 -0.0000  0.0007 -0.0094  0.4802  1.5799  0.1155  0.9677 -0.1358  0.0022
                0.0026  0.0025 -0.2195 -0.2920 -0.2685  0.8327  0.9847  0.9796  0.1215  0.1323
                0.1347  0.0166  0.0184  0.0170  0.0098  0.0073  0.0131  0.0025  0.0017  0.0013
               -0.0002  0.0005 -0.0008  0.0005 -0.0002 -0.0011 -0.0002
 26 C           0.0000 -0.0000  0.0007 -0.0097  0.4815  1.5790  0.1285  0.9658 -0.1362  0.0025
                0.0023  0.0025 -0.2438 -0.2140 -0.2895  0.9630  0.8811  0.9562  0.1321  0.1270
                0.1297  0.0054  0.0175  0.0174  0.0128  0.0193  0.0070 -0.0013  0.0004  0.0006
                0.0016  0.0007  0.0008  0.0001  0.0019  0.0008 -0.0016
 27 C           0.0000 -0.0000  0.0007 -0.0107  0.4874  1.5716  0.0787  0.9766 -0.1340  0.0025
                0.0024  0.0024 -0.2329 -0.2097 -0.2169  0.9696  0.9288  0.9368  0.1393  0.1373
                0.1377  0.0017  0.0106  0.0119  0.0042  0.0113  0.0037 -0.0014  0.0001  0.0002
                0.0008  0.0005  0.0009 -0.0006  0.0010  0.0009 -0.0008
 28 C           0.0000 -0.0000  0.0007 -0.0102  0.4853  1.5729  0.1021  0.9660 -0.1322  0.0024
                0.0025  0.0024 -0.2150 -0.2750 -0.1901  0.9264  0.9957  0.9267  0.1366  0.1374
                0.1398  0.0066  0.0116  0.0088  0.0039  0.0037  0.0086  0.0001  0.0013  0.0008
                0.0000  0.0003  0.0005 -0.0004 -0.0010 -0.0004  0.0006
 29 C           0.0000 -0.0000  0.0007 -0.0093  0.4799  1.5805  0.1395  0.9635 -0.1360  0.0025
                0.0022  0.0025 -0.2520 -0.2205 -0.2537  0.9453  0.8577  0.9804  0.1313  0.1228
                0.1361  0.0098  0.0216  0.0151  0.0107  0.0176  0.0080 -0.0002  0.0014  0.0010
                0.0014  0.0008 -0.0002  0.0012  0.0005 -0.0015 -0.0005
 11 H           0.0000 -0.0000  0.0006 -0.0286  0.4080  0.1853  0.4851  0.0291  0.0276  0.0243
                0.0037  0.0010  0.0007 -0.0021  0.0006  0.0005
 12 H           0.0000 -0.0000  0.0008 -0.0319  0.4548  0.1280  0.5065  0.0337  0.0276  0.0255
                0.0036  0.0010  0.0007 -0.0022  0.0006  0.0009
 13 H           0.0000 -0.0000  0.0005 -0.0255  0.4370  0.2073  0.4654  0.0251  0.0302  0.0244
               -0.0028  0.0016  0.0003  0.0057  0.0016 -0.0021
 14 H           0.0000 -0.0000  0.0007 -0.0303  0.4217  0.1612  0.4984  0.0227  0.0289  0.0292
               -0.0026  0.0002  0.0016 -0.0014  0.0012  0.0054
 15 H           0.0000 -0.0000  0.0008 -0.0337  0.4235  0.1287  0.5178  0.0258  0.0278  0.0264
                0.0034  0.0008  0.0008 -0.0009  0.0005 -0.0003
 16 H           0.0000 -0.0000  0.0006 -0.0270  0.4185  0.2050  0.4743  0.0230  0.0315  0.0245
               -0.0023  0.0015  0.0002  0.0058  0.0017 -0.0027
 17 H           0.0000 -0.0000  0.0007 -0.0306  0.4042  0.1686  0.4993  0.0309  0.0262  0.0237
                0.0060  0.0017  0.0016 -0.0026  0.0002 -0.0024
 18 H           0.0000 -0.0000  0.0007 -0.0311  0.4530  0.1476  0.4996  0.0256  0.0289  0.0271
               -0.0013  0.0005  0.0009 -0.0008  0.0009  0.0041
 19 H           0.0000 -0.0000  0.0005 -0.0258  0.4268  0.2101  0.4671  0.0261  0.0292  0.0237
               -0.0010  0.0010  0.0003  0.0048  0.0015 -0.0022
 20 H           0.0000 -0.0000  0.0008 -0.0336  0.4234  0.1303  0.5170  0.0298  0.0262  0.0240
                0.0059  0.0017  0.0017 -0.0027  0.0001 -0.0025
 21 H           0.0000 -0.0000  0.0006 -0.0271  0.4168  0.2053  0.4746  0.0249  0.0306  0.0236
               -0.0021  0.0014  0.0001  0.0056  0.0016 -0.0023
 22 H           0.0000 -0.0000  0.0007 -0.0308  0.4396  0.1401  0.5035  0.0250  0.0299  0.0261
               -0.0014  0.0004  0.0010 -0.0007  0.0009  0.0042
 30 H           0.0000 -0.0000  0.0005 -0.0285  0.4037  0.1297  0.5041  0.0259  0.0189  0.0299
               -0.0021  0.0003  0.0014 -0.0035  0.0013  0.0067
 31 H           0.0000 -0.0000  0.0006 -0.0302  0.3296  0.1737  0.5061  0.0239  0.0273  0.0235
               -0.0007  0.0010  0.0003  0.0047  0.0010 -0.0023
 32 H           0.0000 -0.0000  0.0006 -0.0286  0.4192  0.1967  0.4815  0.0222  0.0292  0.0234
               -0.0002  0.0010  0.0005  0.0042  0.0009 -0.0020
 33 H           0.0000 -0.0000  0.0007 -0.0292  0.4605  0.1645  0.4872  0.0191  0.0236  0.0289
               -0.0029  0.0002  0.0013 -0.0026  0.0015  0.0066
 34 H           0.0000 -0.0000  0.0007 -0.0305  0.4725  0.1495  0.4942  0.0244  0.0195  0.0272
               -0.0020  0.0005  0.0014 -0.0020  0.0010  0.0053
 35 H           0.0000 -0.0000  0.0006 -0.0276  0.4434  0.1748  0.4804  0.0273  0.0208  0.0251
                0.0017  0.0007  0.0009  0.0020  0.0007 -0.0017
 36 H           0.0000 -0.0000  0.0007 -0.0305  0.3885  0.1870  0.4981  0.0235  0.0257  0.0280
               -0.0020  0.0004  0.0014 -0.0021  0.0012  0.0053
 37 H           0.0000 -0.0000  0.0005 -0.0245  0.4044  0.2431  0.4569  0.0240  0.0299  0.0229
               -0.0008  0.0010  0.0004  0.0048  0.0013 -0.0027
 38 H           0.0000 -0.0000  0.0009 -0.0340  0.3913  0.1579  0.5167  0.0266  0.0304  0.0250
                0.0025  0.0006  0.0009  0.0015  0.0006 -0.0017
 39 H           0.0000 -0.0000  0.0006 -0.0278  0.4219  0.2087  0.4747  0.0292  0.0235  0.0254
                0.0035  0.0010  0.0009 -0.0012  0.0007 -0.0005
 40 H           0.0000 -0.0000  0.0006 -0.0273  0.4180  0.2132  0.4722  0.0273  0.0242  0.0271
                0.0002  0.0009  0.0007 -0.0010  0.0009  0.0028
 41 H           0.0000 -0.0000  0.0009 -0.0348  0.4053  0.1399  0.5230  0.0264  0.0261  0.0267
                0.0003  0.0007  0.0006 -0.0011  0.0010  0.0028
 42 H           0.0000 -0.0000  0.0006 -0.0285  0.3959  0.2109  0.4827  0.0258  0.0260  0.0250
                0.0002  0.0006  0.0007  0.0024  0.0009 -0.0006
 43 H           0.0000 -0.0000  0.0009 -0.0343  0.4179  0.1388  0.5199  0.0294  0.0245  0.0245
                0.0035  0.0009  0.0009 -0.0010  0.0006 -0.0008
 25 N           0.0000 -0.0000  0.0006 -0.0067  0.5280  1.4913 -0.0772  0.9544  0.6369  0.0027
                0.0028  0.0034  0.1226  0.1254  0.1775  0.8406  0.8559  0.9767  0.0906  0.1029
                0.4447  0.0219  0.0219  0.0159  0.0208  0.0141 -0.0133  0.0036  0.0027  0.0054
                0.0015  0.0006 -0.0038  0.0038  0.0045 -0.0046 -0.0086

 Gross Charges per Atom (Z minus electrons)
 ==========================================
            -0.1219    0.5119   -0.5042   -0.5145    0.2661    0.2817    0.4787    0.4266    0.4546    0.4237
            -0.1360   -0.1495   -0.1687   -0.1369   -0.1214   -0.1547   -0.1273   -0.1559   -0.1620   -0.1221
            -0.1535   -0.1385    0.0917    0.5025   -0.3594    0.4576    0.3874    0.3808    0.4399   -0.0882
            -0.0586   -0.1486   -0.1593   -0.1615   -0.1490   -0.1251   -0.1613   -0.1191   -0.1605   -0.1596
            -0.1176   -0.1425   -0.1259
 Net Total: -0.00000000


 Atom-Atom Population Matrix (off-diagonal elements not doubled)
 ===============================================================

     1 :    15.7815
     2 :     0.2853   13.7368
     3 :    -0.0321    0.2859    8.2048
     4 :    -0.0366    0.2733   -0.0484    8.2248
     5 :    -0.0214   -0.0193    0.2070   -0.0140    4.6360
     6 :    -0.0018   -0.0195   -0.0193    0.2072    0.3728    4.6161
     7 :     0.0121    0.0040   -0.0280   -0.0131    0.3615   -0.0247    4.1704
     8 :    -0.0015   -0.0022   -0.0304    0.0040    0.3626   -0.0212   -0.0270    4.2042
     9 :    -0.0015   -0.0041   -0.0138   -0.0276   -0.0225    0.3659   -0.0004    0.0074    4.1910
    10 :     0.0008    0.0025    0.0037   -0.0289   -0.0199    0.3617    0.0070   -0.0064   -0.0262    4.2011
    11 :    -0.0037   -0.0044    0.0124    0.0010   -0.0182   -0.0110    0.3595   -0.0159    0.0010    0.0001
             0.9719
    12 :    -0.0004    0.0020   -0.0088    0.0042    0.0028   -0.0278    0.3504    0.0058   -0.0014   -0.0063
            -0.0604    1.0012
    13 :     0.0062   -0.0006   -0.0145   -0.0009   -0.0107    0.0055    0.3775   -0.0208   -0.0015   -0.0032
            -0.0751   -0.0785    0.9982
    14 :    -0.0001   -0.0013   -0.0164    0.0015   -0.0075   -0.0259    0.0014    0.3684    0.0081   -0.0001
             0.0003   -0.0081    0.0035    0.9778
    15 :    -0.0000    0.0000    0.0108    0.0003   -0.0158   -0.0085   -0.0103    0.3828   -0.0020   -0.0004
            -0.0090    0.0034   -0.0021   -0.0846    0.9495
    16 :    -0.0004   -0.0043   -0.0143   -0.0017   -0.0084    0.0080   -0.0193    0.3723   -0.0045    0.0004
            -0.0053    0.0026   -0.0145   -0.0611   -0.0777    0.9831
    17 :     0.0003   -0.0051    0.0011    0.0136   -0.0108   -0.0137    0.0005   -0.0008    0.3660   -0.0131
             0.0017   -0.0002   -0.0008   -0.0005   -0.0059   -0.0009    0.9475
    18 :    -0.0014   -0.0036    0.0052   -0.0108   -0.0208    0.0027    0.0001   -0.0062    0.3595    0.0043
             0.0003    0.0006   -0.0005   -0.0203    0.0031    0.0013   -0.0686    0.9855
    19 :    -0.0004   -0.0009   -0.0012   -0.0151    0.0045   -0.0160   -0.0018   -0.0028    0.3779   -0.0202
            -0.0007   -0.0007    0.0006   -0.0001    0.0011   -0.0015   -0.0719   -0.0714    0.9975
    20 :    -0.0001   -0.0006    0.0004    0.0111   -0.0081   -0.0140   -0.0035    0.0009   -0.0089    0.3797
            -0.0045    0.0036    0.0007    0.0028   -0.0167    0.0005   -0.0103    0.0033   -0.0015    0.9512
    21 :     0.0003   -0.0021   -0.0016   -0.0140    0.0072   -0.0098   -0.0047    0.0003   -0.0187    0.3729
            -0.0007    0.0021   -0.0017   -0.0009    0.0002    0.0008   -0.0010    0.0034   -0.0173   -0.0791
             0.9813
    22 :     0.0010   -0.0015    0.0011   -0.0144   -0.0248   -0.0088    0.0117   -0.0001    0.0021    0.3671
            -0.0026   -0.0337    0.0015   -0.0000    0.0031   -0.0007    0.0003   -0.0088    0.0038   -0.0846
            -0.0629    0.9894
    23 :     0.2946   -0.0277    0.0004   -0.0010    0.0006    0.0002   -0.0010   -0.0000   -0.0003   -0.0001
            -0.0002   -0.0011   -0.0000   -0.0000    0.0000   -0.0001   -0.0000   -0.0004   -0.0001    0.0000
            -0.0001    0.0000    4.6379
    24 :    -0.0091    0.0001    0.0002    0.0006   -0.0001   -0.0001    0.0001    0.0000    0.0001   -0.0000
            -0.0001   -0.0003    0.0001    0.0000   -0.0000    0.0000   -0.0000    0.0000    0.0001   -0.0000
            -0.0000    0.0001    0.2899    4.2454
    25 :     0.0079   -0.0001    0.0000   -0.0000    0.0000   -0.0000   -0.0000    0.0000   -0.0000    0.0000
            -0.0000    0.0000   -0.0000   -0.0000   -0.0000    0.0000    0.0000   -0.0000   -0.0000    0.0000
             0.0000    0.0000   -0.0159    0.3750    6.6664
    26 :    -0.0004   -0.0002   -0.0000   -0.0000   -0.0000   -0.0000    0.0000   -0.0000    0.0000   -0.0000
            -0.0000    0.0000    0.0000    0.0000   -0.0000   -0.0000    0.0000   -0.0000    0.0000   -0.0000
            -0.0000   -0.0000    0.0070   -0.0204    0.3473    4.1935
[...]
  some or all of Refs. [1-4]        
   
  Refs. [1,2]: original implementation    
  Ref. [3]: NBO analysis, 
  Ref. [4]: hybrid functionals and rewrite
  Recommended references: [2,4]       
   
  Nonrelativistic code for the       
  DSO term and a few other things     
  based on the Dickson & Ziegler      
  program, Refs. [5,6]            
   
  References: 
  =========== 
   
  [1] J. Autschbach and T. Ziegler,      
      J. Chem. Phys. 113 (2000), 936     
   
  [2] J. Autschbach and T. Ziegler,      
      J. Chem. Phys. 113 (2000), 9410    
   
  [3] J. Autschbach,                     
      J. Chem. Phys. 128 (2008), 164112  
   
  [4] J. Autschbach,                     
      J. Chem. Phys. 129 (2008), 094105  
   
  [5] R. M. Dickson and T. Ziegler,      
      J. Phys. Chem. 100 (1996), 5286    
   
  [6] J. Khandogin and T. Ziegler,       
      Spectrochim. Acta A55 (1999), 607  
   
  ****************************************  
   



                                        ***********************************
                                        *   J O B  I N F O R M A T I O N  *
                                        ***********************************
  



 ===============================
 General information from TAPE21
 ===============================
  
  TITLE:      *** adf ***                                       
 JOB ID:      1086330846
  NONLXC:     OPTX PBEc                                         
  SYMMETRY:   NOSYM                                             
   
  IOPREL:       3
  ------>     Scalar ZORA + frozen core pot. (Re MOs)



 ==========================================
 Nuclear Coordinates and internal numbering
 ==========================================
  
  S  (  1):       3.1984      1.6661      1.0707
  P  (  2):       2.2048      0.6264     -0.5216
  O  (  3):       0.8009      1.4410     -0.7751
  O  (  4):       1.4662     -0.6012      0.3010
  C  (  5):      -0.2896      0.9503      0.0432
  C  (  6):       0.0274     -0.5664      0.1669
  C  (  7):      -0.2654      1.6753      1.3800
  C  (  8):      -1.5737      1.2586     -0.6998
  C  (  9):      -0.3415     -1.3527     -1.0832
  C  ( 10):      -0.5605     -1.2253      1.3985
  C  ( 11):       4.8358      1.7658      0.2755
  C  ( 12):       5.7396      0.6099      0.6681
  C  ( 13):       7.8540      1.8037      0.6742
  C  ( 14):       8.2750      2.8712     -0.3214
  C  ( 15):       8.9696     -0.5293     -0.8767
  C  ( 16):       7.7587     -0.5417      0.0364
  H  ( 17):      -1.1574      1.4403      1.9633
  H  ( 18):       0.6112      1.4130      1.9736
  H  ( 19):      -0.2452      2.7503      1.1983
  H  ( 20):      -1.5405      0.8881     -1.7231
  H  ( 21):      -2.4275      0.8090     -0.1878
  H  ( 22):      -1.7279      2.3379     -0.7317
  H  ( 23):      -1.4228     -1.4624     -1.1805
  H  ( 24):       0.0423     -0.8708     -1.9842
  H  ( 25):       0.1001     -2.3475     -1.0130
  H  ( 26):      -1.6505     -1.1516      1.3864
  H  ( 27):      -0.2929     -2.2826      1.4100
  H  ( 28):      -0.1847     -0.7685      2.3123
  H  ( 29):       4.7068      1.7922     -0.8088
  H  ( 30):       5.2524      2.7265      0.5817
  H  ( 31):       5.2834     -0.3153      0.3065
  H  ( 32):       5.7747      0.5332      1.7693
  H  ( 33):       8.0666     -0.8616      1.0494
  H  ( 34):       7.0532     -1.2934     -0.3262
  H  ( 35):       8.6808     -0.2494     -1.8916
  H  ( 36):       9.4266     -1.5208     -0.9059
  H  ( 37):       9.7331      0.1722     -0.5342
  H  ( 38):       8.7437      1.3779      1.1557
  H  ( 39):       7.2814      2.2704      1.4835
  H  ( 40):       8.8748      2.4415     -1.1252
  H  ( 41):       8.8653      3.6490      0.1707
  H  ( 42):       7.4011      3.3397     -0.7782
  N  ( 43):       7.0579      0.7317      0.0749



 =======
 Numbers
 =======
  
  number of valence electrons:    152.00
 
  ---   AOs   ---          ---   MOs   ---
  ncor =      0            nocc =     76
  nval =   1061            nvir =    891
  nbas =   1061            nmo  =    967
  naos =   1061            nsot =    967



 ===================
 Fragments and Basis
 ===================
  
   
  --------------------------
  ATOM TYPE:  S                                                 
  --------------------------
  === BASIS
    1S 1600.00     VALENCE
    1S  320.00     VALENCE
    1S   80.00     VALENCE
    1S   32.00     VALENCE
    1S   19.40     VALENCE
    1S   14.35     VALENCE
    2S    5.90     VALENCE
    2S    4.25     VALENCE
    2P   19.40     VALENCE
    2P    8.05     VALENCE
    2P    4.55     VALENCE
    3S    3.45     VALENCE
    3S    2.25     VALENCE
    3S    1.50     VALENCE
    3P    2.65     VALENCE
    3P    1.60     VALENCE
    3P    1.00     VALENCE
    3D    2.10     VALENCE
    4F    2.10     VALENCE
   
  --------------------------
  ATOM TYPE:  P                                                 
  --------------------------
  === BASIS
    1S 1500.00     VALENCE
    1S  300.00     VALENCE
    1S   75.00     VALENCE
    1S   30.00     VALENCE
    1S   18.00     VALENCE
    1S   13.35     VALENCE
    2S    5.60     VALENCE
    2S    4.05     VALENCE
    2P   18.00     VALENCE
    2P    7.45     VALENCE
    2P    4.10     VALENCE
    3S    2.70     VALENCE
    3S    1.85     VALENCE
    3S    1.30     VALENCE
    3P    2.30     VALENCE
    3P    1.35     VALENCE
    3P    0.85     VALENCE
    3D    1.90     VALENCE
    4F    2.00     VALENCE
   
  --------------------------
  ATOM TYPE:  O                                                 
  --------------------------
  === BASIS
    1S  800.00     VALENCE
    1S  160.00     VALENCE
    1S   40.00     VALENCE
    1S   16.00     VALENCE
    1S    9.80     VALENCE
    1S    6.80     VALENCE
    2S    7.58     VALENCE
    2S    2.88     VALENCE
    2S    1.72     VALENCE
    2P    9.80     VALENCE
    2P    4.08     VALENCE
    2P    2.08     VALENCE
    2P    1.12     VALENCE
    3D    2.00     VALENCE
    4F    3.00     VALENCE
   
  --------------------------
  ATOM TYPE:  C                                                 
  --------------------------
  === BASIS
    1S  600.00     VALENCE
    1S  120.00     VALENCE
    1S   30.00     VALENCE
    1S   12.00     VALENCE
    1S    7.68     VALENCE
    1S    5.00     VALENCE
    2S    1.28     VALENCE
    2S    2.10     VALENCE
    2S    4.60     VALENCE
    2P    7.68     VALENCE
    2P    0.82     VALENCE
    2P    1.48     VALENCE
    2P    2.94     VALENCE
    3D    2.20     VALENCE
    4F    3.30     VALENCE
   
  --------------------------
  ATOM TYPE:  H                                                 
  --------------------------
  === BASIS
    1S  100.00     VALENCE
    1S   25.00     VALENCE
    1S    7.50     VALENCE
    1S    3.00     VALENCE
    1S    0.69     VALENCE
    1S    0.92     VALENCE
    1S    1.58     VALENCE
    2P    1.25     VALENCE
    3D    2.50     VALENCE
   
  --------------------------
  ATOM TYPE:  N                                                 
  --------------------------
  === BASIS
    1S  700.00     VALENCE
    1S  140.00     VALENCE
    1S   35.00     VALENCE
    1S   14.00     VALENCE
    1S    8.74     VALENCE
    1S    5.90     VALENCE
    2S    5.15     VALENCE
    2S    2.50     VALENCE
    2S    1.50     VALENCE
    2P    8.74     VALENCE
    2P    3.68     VALENCE
    2P    1.88     VALENCE
    2P    1.00     VALENCE
    3D    2.20     VALENCE
    4F    3.30     VALENCE



 =================================
 TAPE10 info, TAPE21 compatibility
 =================================
  
  ---> TAPE10 will be created by CPL
 
  ---> TAPE21 present
 
  ---> Potential is already on TAPE10.
       It will not be re-calculated.



 ==========================================
 Settings for the NMR couplings computation
 ==========================================
  
  Compute...
  FC  Term    YES             (*     default *)
  SD  Term     NO             (*     default *)
  PSO Term     NO             (*     default *)
  DSO Term     NO             (*     default *)
 
  Max. no. of SCF iterations:                25
  Convergence criterion for SCF cycle:       0.000100000

  Nuclei numbering in the output refers to the
  INTERNAL atom ordering of ADF.
  This ordering is usually different from the order
  that has been specified in the ADF input that pro-
  duced the TAPE21 being used here.



 ===========================
 L I N E A R   S C A L I N G
 ===========================
  

 Overlap cut-off criterion AO matrix elements:     0.1000000000E-07





                                  ***********************************************
                                  *  NMR spin spin coupling tensor calculation  *
                                  ***********************************************
  

 Nuclear magnetogyric ratios / 1E7 radians/(s T):
 S  (  1):     2.054
 P  (  2):    10.841
 O  (  3):    -3.628
 O  (  4):    -3.628
 C  (  5):     6.728
 C  (  6):     6.728
 C  (  7):     6.728
 C  (  8):     6.728
 C  (  9):     6.728
 C  ( 10):     6.728
 C  ( 11):     6.728
 C  ( 12):     6.728
 C  ( 13):     6.728
 C  ( 14):     6.728
 C  ( 15):     6.728
 C  ( 16):     6.728
 H  ( 17):    26.752
 H  ( 18):    26.752
 H  ( 19):    26.752
 H  ( 20):    26.752
 H  ( 21):    26.752
 H  ( 22):    26.752
 H  ( 23):    26.752
 H  ( 24):    26.752
 H  ( 25):    26.752
 H  ( 26):    26.752
 H  ( 27):    26.752
 H  ( 28):    26.752
 H  ( 29):    26.752
 H  ( 30):    26.752
 H  ( 31):    26.752
 H  ( 32):    26.752
 H  ( 33):    26.752
 H  ( 34):    26.752
 H  ( 35):    26.752
 H  ( 36):    26.752
 H  ( 37):    26.752
 H  ( 38):    26.752
 H  ( 39):    26.752
 H  ( 40):    26.752
 H  ( 41):    26.752
 H  ( 42):    26.752
 N  ( 43):     1.934

 Performing the following coupling computations:
 Nucleus   2 (P ) perturbing 
          11 (C ) responding
          29 (H ) responding
          30 (H ) responding



 =============================================
 Computation for perturbing ADF-GUI atom: P(2)
 =============================================
  
 
 *** running FC calculation
     computing
     ... matrix elements for perturbing nucleus   2
     ... matrix elements for responding nucleus  11
     ... matrix elements for responding nucleus  29
     ... matrix elements for responding nucleus  30
     ... ZSO / Fermi contact coupling constant(s) 



 ===================================
 CPKS routine for spin-spin coupling  ***  Version 05/08 (scalar)  ***
 ===================================
  
 Using new AO based algorithms for CPKS
    running CPKS for TRIPLET Operator
    using first order VWN potential for LDA perturbation
    Will use LDA kernel
 
 iter.  1 V(1) measure  0.5431629263135E+00
 iter.  2 V(1) measure  0.8264981419376E+00
        2        delta  0.2833352156241E+00
 iter.  3 V(1) measure  0.8281330748971E+00
        3        delta  0.1634932959467E-02
 iter.  4 V(1) measure  0.8281344445368E+00
        4        delta  0.1369639728632E-05
 *** convergence reached



                                                *******************
                                                *  R E S U L T S  *
                                                *******************
  



 ========================================
  Nucleus 2 (P) perturbing nucleus 11 (C)
 ========================================
  
 Internal CPL numbering of atoms:  P(2) perturbing  C(11)
 ADF-GUI atoms:  P(2) perturbing  C(23)
  
 ---------------------------------
   Cartesian Axis Representation  
 ---------------------------------

 ----- k (10^19 kg m-2 s-2 A-2) ----         ------------- j (hz) -------------

 fermi-contact contribution:             
  isotropic    k=      31.621                              j=      38.712
      31.621       0.000       0.000             38.712       0.000       0.000
       0.000      31.621       0.000              0.000      38.712       0.000
       0.000       0.000      31.621              0.000       0.000      38.712

 total calculated spin-spin coupling:    
  isotropic    k=      31.621                              j=      38.712
      31.621       0.000       0.000             38.712       0.000       0.000
       0.000      31.621       0.000              0.000      38.712       0.000
       0.000       0.000      31.621              0.000       0.000      38.712
 
 ---------------------------------
   Principal Axis Representation  
 ---------------------------------

 ----- k (10^19 kg m-2 s-2 A-2) ----         ------------- j (hz) -------------

 fermi-contact contribution:             
  isotropic    k=      31.621                              j=      38.712
      31.621       0.000       0.000             38.712       0.000       0.000
       0.000      31.621       0.000              0.000      38.712       0.000
       0.000       0.000      31.621              0.000       0.000      38.712

 total calculated spin-spin coupling:    
  isotropic    k=      31.621                              j=      38.712
      31.621       0.000       0.000             38.712       0.000       0.000
       0.000      31.621       0.000              0.000      38.712       0.000
       0.000       0.000      31.621              0.000       0.000      38.712
 
 Principal Axis System (u,v,w) expressed in Cartesians:
 (taken as eigenvectors of the symmetric part of the coupling tensor,
  sorted in ascending order of eigenvalues = principal values)
        u         v         w
        1.000     0.000     0.000
        0.000     1.000     0.000
        0.000     0.000     1.000



 ========================================
  Nucleus 2 (P) perturbing nucleus 29 (H)
 ========================================
  
 Internal CPL numbering of atoms:  P(2) perturbing  H(29)
 ADF-GUI atoms:  P(2) perturbing  H(30)
  
 ---------------------------------
   Cartesian Axis Representation  
 ---------------------------------

 ----- k (10^19 kg m-2 s-2 A-2) ----         ------------- j (hz) -------------

 fermi-contact contribution:             
  isotropic    k=       2.273                              j=      11.065
       2.273       0.000       0.000             11.065       0.000       0.000
       0.000       2.273       0.000              0.000      11.065       0.000
       0.000       0.000       2.273              0.000       0.000      11.065

 total calculated spin-spin coupling:    
  isotropic    k=       2.273                              j=      11.065
       2.273       0.000       0.000             11.065       0.000       0.000
       0.000       2.273       0.000              0.000      11.065       0.000
       0.000       0.000       2.273              0.000       0.000      11.065
 
 ---------------------------------
   Principal Axis Representation  
 ---------------------------------

 ----- k (10^19 kg m-2 s-2 A-2) ----         ------------- j (hz) -------------

 fermi-contact contribution:             
  isotropic    k=       2.273                              j=      11.065
       2.273       0.000       0.000             11.065       0.000       0.000
       0.000       2.273       0.000              0.000      11.065       0.000
       0.000       0.000       2.273              0.000       0.000      11.065

 total calculated spin-spin coupling:    
  isotropic    k=       2.273                              j=      11.065
       2.273       0.000       0.000             11.065       0.000       0.000
       0.000       2.273       0.000              0.000      11.065       0.000
       0.000       0.000       2.273              0.000       0.000      11.065
 
 Principal Axis System (u,v,w) expressed in Cartesians:
 (taken as eigenvectors of the symmetric part of the coupling tensor,
  sorted in ascending order of eigenvalues = principal values)
        u         v         w
        1.000     0.000     0.000
        0.000     1.000     0.000
        0.000     0.000     1.000



 ========================================
  Nucleus 2 (P) perturbing nucleus 30 (H)
 ========================================
  
 Internal CPL numbering of atoms:  P(2) perturbing  H(30)
 ADF-GUI atoms:  P(2) perturbing  H(31)
  
 ---------------------------------
   Cartesian Axis Representation  
 ---------------------------------

 ----- k (10^19 kg m-2 s-2 A-2) ----         ------------- j (hz) -------------

 fermi-contact contribution:             
  isotropic    k=       4.227                              j=      20.574
       4.227       0.000       0.000             20.574       0.000       0.000
       0.000       4.227       0.000              0.000      20.574       0.000
       0.000       0.000       4.227              0.000       0.000      20.574

 total calculated spin-spin coupling:    
  isotropic    k=       4.227                              j=      20.574
       4.227       0.000       0.000             20.574       0.000       0.000
       0.000       4.227       0.000              0.000      20.574       0.000
       0.000       0.000       4.227              0.000       0.000      20.574
 
 ---------------------------------
   Principal Axis Representation  
 ---------------------------------

 ----- k (10^19 kg m-2 s-2 A-2) ----         ------------- j (hz) -------------

 fermi-contact contribution:             
  isotropic    k=       4.227                              j=      20.574
       4.227       0.000       0.000             20.574       0.000       0.000
       0.000       4.227       0.000              0.000      20.574       0.000
       0.000       0.000       4.227              0.000       0.000      20.574

 total calculated spin-spin coupling:    
  isotropic    k=       4.227                              j=      20.574
       4.227       0.000       0.000             20.574       0.000       0.000
       0.000       4.227       0.000              0.000      20.574       0.000
       0.000       0.000       4.227              0.000       0.000      20.574
 
 Principal Axis System (u,v,w) expressed in Cartesians:
 (taken as eigenvectors of the symmetric part of the coupling tensor,
  sorted in ascending order of eigenvalues = principal values)
        u         v         w
        1.000     0.000     0.000
        0.000     1.000     0.000
        0.000     0.000     1.000
 *******************************************************************************

                             N M R   E X I T
 NORMAL TERMINATION



 =================
 Timing Statistics
 =================
  
 Total Used :                     CPU=      262.74      System=        1.00     Elapsed=      272.68

 Calls  Section                     ( Mean, Percentage )
 ---------------------------------------------------------------------------------------------------
     3  ><      ................      0.00    0.00             0.00    0.03             0.00    0.00
     1  GENPT   ................      2.37    0.90             0.24   24.39             2.70    0.99
     4  CALFC   ................     38.33   58.35             0.12   46.33            39.60   58.08
     1  FCPT1   ................    107.04   40.74             0.28   28.34           111.57   40.92
     1  FCCPL   ................      0.00    0.00             0.00    0.00             0.00    0.00
     1  JCOUPL  ................      0.00    0.00             0.00    0.00             0.00    0.00
     1  EXIT PROCEDURE .........      0.00    0.00             0.01    0.90             0.01    0.00


 Currently Open Files (EXIT00)
 ====================

 Unit    Access Format  Status   Type       Ident (file)
 -------------------------------------------------------
   3      SEQ    FORM   TRANSP  NORMAL      LOGFILE
                                          ( /home/milias/Work/projects/open-collection/theoretical_chemistry/projects/nmr_diplomovky/derivaty_markerov/derivative_1/ams/srzora/der1.nmr_srzora_gnuc_opbe_tz2p-j_good_cosmo-chcl3.logfile )
