

 Parallel Execution: Process Information
 ==============================================================================
 Rank   Node Name                              NodeID   MyNodeRank  NodeMaster
    0   ubuntu-kch                                0          0          0
    1   ubuntu-kch                                0          1         -1
    2   ubuntu-kch                                0          2         -1
    3   ubuntu-kch                                0          3         -1
 ==============================================================================


May use up to 7570MB of RAM as shared memory on node 0

 *******************************************************************************
 *                                                                             *
 *  --------------------------------                                           *
 *   Amsterdam Modeling Suite (AMS)              2021.103                      *
 *  --------------------------------                                           *
 *                                               r96558 2021-08-09             *
 *                                                                             *
 *                                                                             *
 *                              =================                              *
 *                              |               |                              *
 *                              |     A M S     |                              *
 *                              |               |                              *
 *                              =================                              *
 *                                                                             *
 *                                                                             *
 *   Online information and documentation:  https://www.scm.com/support/       *
 *   E-mail:  support@scm.com   info@scm.com                                   *
 *                                                                             *
 *   Scientific publications using AMS results must be properly referenced     *
 *   See the User Manuals (or the web site) for recommended citations          *
 *   The terms and conditions of the End User License Agreement apply to       *
 *   the use of AMS, https://www.scm.com/license-terms/                        *
 *                                                                             *
 **********************  x86_64_linux_intel / intelmpi  ************************
 
 Licensed to: Dr. Miroslav Ilias / Matej Bel University, Department Chemistry, Fac. Natural Sciences / Banska Bystrica / SLOVAKIA
 SCM User ID: u17848
  
 AMS 2021.103  RunTime: Sep22-2021 08:49:15  ShM Nodes: 1  Procs: 4

 AMS jobname: ams
 AMS jobid  : 507281217

 Start   directory: /home/milias/work/projects/open-collection/theoretical_chemistry/projects/nmr_diplomovky/reference_compounds/phosphoric_acid/ams/pbe0_tz2p_good/cosmo-chcl3/opbe_tz2p-j_good-cosmo-chcl3/tmp.milias.654704.0.noindex/
 Results directory: /home/milias/work/projects/open-collection/theoretical_chemistry/projects/nmr_diplomovky/reference_compounds/phosphoric_acid/ams/pbe0_tz2p_good/cosmo-chcl3/opbe_tz2p-j_good-cosmo-chcl3/phosphoric_acid.nmrshield_opbe_tz2p-j_good_cosmo-chcl3.results/
 Scratch directory: /tmp/amstmp_ams_kid0.507281217/


 Communication costs MPI_COMM_WORLD:      0.245 usec per message,   0.0034 usec per 8-byte item
 Communication costs for intra-node:      0.259 usec per message,   0.0033 usec per 8-byte item

 RNG seed: 1064892393 769463160 829238998 10627643 1385069683 -1473132663 1315823329 1165552621



                      ************************************************************************
                      *  ADF 2021.103  RunTime: Sep22-2021 08:49:15  ShM Nodes: 1  Procs: 4  *
                      ************************************************************************
  
       ****************************
       * SINGLE POINT CALCULATION *
       ****************************
 
--------
Geometry
--------
Formula: H3O4P
Atoms
  Index Symbol   x (angstrom)   y (angstrom)   z (angstrom)
      1      P     0.00000000     0.00000000    -0.15893800       adf.R=1.850
      2      O    -1.37620200    -0.34502600     0.53088500       adf.R=1.517
      3      O     0.98690300    -1.01931300     0.53088500       adf.R=1.517
      4      O     0.38930000     1.36433900     0.53088500       adf.R=1.517
      5      O     0.00000000     0.00000000    -1.62498600       adf.R=1.517
      6      H    -2.13980900     0.01390900     0.06375700       adf.R=1.350
      7      H     1.05785900    -1.86008300     0.06375700       adf.R=1.350
      8      H     1.08195000     1.84617500     0.06375700       adf.R=1.350
 
Total System Charge             0.00000
Bonding info available!
 
 
----------------
ADF Engine Input
----------------
 
 Basis
 Type TZ2P-J
 Core None
 End
 Save TAPE10
 XC
 GGA OPBE
 End
 Relativity
 Level None
 End
 Symmetry NOSYM
 Solvation
 Surf Delley
 Solv name=Chloroform cav0=0.0 cav1=0.0067639
 Charged method=CONJ
 C-Mat POT
 SCF VAR ALL
 CSMRSP
 End
 NumericalQuality Good
 

 Title: *** (NO TITLE) ***

 *** adf ***



 ===========================
 A T T A C H E D   F I L E S
 ===========================
  



 ===============================
 M O D E L   P A R A M E T E R S
 ===============================
  
 DENSITY FUNCTIONAL POTENTIAL (scf)
    LDA:                               VWN                                      
    Gradient Corrections:              OPTX PBEc                               == Not Default ==

 SPIN  (restricted / unrestr.)
    Molecule:                          Restricted                               
    Fragments:                         Restricted                               

 OTHER ASPECTS
    Relativistic Corrections:          ---                                     == Not Default ==

    Nuclear Charge Density Model:      Point Charge Nuclei                      
    Core Treatment:                    Frozen Orbital(s)                        

    Hyperfine or Zeeman Interaction:   ---                                      

 SOLVATION
-------------------------------------------

  The Delley construction of COSMO surface surface is calculated

       Division Level for Surface Triangles (NDIV)                  3
       Final Division Level for Triangles (NFDIV)                   1
       Radius of the Solvent (RSOL)                           3.17000 angstr
  Dielectric Constant (EPSL)                                  4.80000

       COSMO equation is solved iteratively-               conjugate-gradient

       Maximun of Iterations for Charges (NCIX)                  1000
       Criterion for Charge convergence (CCNV)                1.0E-08

  COSMO charges included variationally in SCF

       COSMO included at every SCF cycle

  Geometry-dependent empirical factor                         0.00000

  C-Matrix calculated in cspmtx

  In cspmtx, C-Matrix calculated using fitted potential

-------------------------------------------



 Fragment File(s)
 ----------------
 P:
         file : /home/milias/work/projects/open-collection/theoretical_chemistry/projects/nmr_diplomovky/reference_compounds/phosphoric_acid/ams/pbe0_tz2p_good/cosmo-chcl3/opbe_tz2p-j_good-cosmo-chcl3/phosphoric_acid.nmrshield_opbe_tz2p-j_good_cosmo-chcl3.results/t21.7D1EC287.P
         jobid: 0
         title: Phosphorus (TZ2P-J)
 O:
         file : /home/milias/work/projects/open-collection/theoretical_chemistry/projects/nmr_diplomovky/reference_compounds/phosphoric_acid/ams/pbe0_tz2p_good/cosmo-chcl3/opbe_tz2p-j_good-cosmo-chcl3/phosphoric_acid.nmrshield_opbe_tz2p-j_good_cosmo-chcl3.results/t21.1EA61953.O
         jobid: 0
         title: Oxygen (TZ2P-J)
 H:
         file : /home/milias/work/projects/open-collection/theoretical_chemistry/projects/nmr_diplomovky/reference_compounds/phosphoric_acid/ams/pbe0_tz2p_good/cosmo-chcl3/opbe_tz2p-j_good-cosmo-chcl3/phosphoric_acid.nmrshield_opbe_tz2p-j_good_cosmo-chcl3.results/t21.665BEA92.H
         jobid: 0
         title: Hydrogen (TZ2P-J)



 ===============
 G E O M E T R Y  ***  3D  Molecule  ***
 ===============
  

 ATOMS
 =====                            X Y Z                    CHARGE                     RADIUS
                                (Angstrom)             Nucl     +Core       At.Mass (Angstrom)
                       --------------------------    ----------------       ------- ----------
    1  P               0.0000    0.0000   -0.1589     15.00     15.00       30.9738    1.8500
    2  O              -1.3762   -0.3450    0.5309      8.00      8.00       15.9949    1.5170
    3  O               0.9869   -1.0193    0.5309      8.00      8.00       15.9949    1.5170
    4  O               0.3893    1.3643    0.5309      8.00      8.00       15.9949    1.5170
    5  O               0.0000    0.0000   -1.6250      8.00      8.00       15.9949    1.5170
    6  H              -2.1398    0.0139    0.0638      1.00      1.00        1.0078    1.3500
    7  H               1.0579   -1.8601    0.0638      1.00      1.00        1.0078    1.3500
    8  H               1.0819    1.8462    0.0638      1.00      1.00        1.0078    1.3500


 FRAGMENTS
 =========                                     Atoms in this Fragment     Cart. coord.s (Angstrom)
                                               -------------------------------------------------------
    1  P                                                 1  P            0.0000    0.0000   -0.1589
    2  O                                                 2  O           -1.3762   -0.3450    0.5309
    3  O                                                 3  O            0.9869   -1.0193    0.5309
    4  O                                                 4  O            0.3893    1.3643    0.5309
    5  O                                                 5  O            0.0000    0.0000   -1.6250
    6  H                                                 6  H           -2.1398    0.0139    0.0638
    7  H                                                 7  H            1.0579   -1.8601    0.0638
    8  H                                                 8  H            1.0819    1.8462    0.0638


 Interatomic Distance Matrix (Angstrom)
 --------------------------------------

   1)     0.000
   2)     1.578   0.000
   3)     1.578   2.457   0.000
   4)     1.578   2.457   2.457   0.000
   5)     1.466   2.581   2.581   2.581   0.000
   6)     2.151   0.964   3.326   2.905   2.726   0.000
   7)     2.151   2.905   0.964   3.326   2.726   3.706   0.000
   8)     2.151   3.326   2.905   0.964   2.726   3.706   3.706   0.000

 Min. Distance =    0.9644
 Max. Distance =    3.7063



 =====================================
 S Y M M E T R Y ,   E L E C T R O N S
 =====================================
  
 Symmetry: NOSYM

 Irreducible Representations, including subspecies
 -------------------------------------------------
 A


 Configuration of Valence Electrons
 ==================================
 ( determined in the SCF procedure )

 Total:   50

 Net Charge: 0 (Nuclei minus Electrons)

 Aufbau principle for MO occupations will be applied through SCF cycle no.     150
 Thereafter, the program will assign electrons to MOs that are spatially
 similar to the occupied MOs in a "reference" cycle ("KeepOrbitals").
 The reference cycle is always the PREVIOUS cycle: it will evolve with
 the SCF procedure.
1
 ***************************************************************************************************



                                      ****************************************
                                      *  B U I L D : (Fragments, Functions)  *
                                      ****************************************
  



 =======
 S F O s  ***  (Symmetrized Fragment Orbitals)  ***
 =======
  
 SFOs are linear combinations of (valence) Fragment Orbitals (FOs), such that the SFOs transform as the
 irreducible representations of the (molecular) symmetry group. Each SFO is therefore characterized by
 an irrep of the molecule and by a few (or only one) generating FOs.
 The SFOs constitute a symmetry-adapted basis for the Fock matrix. The MO eigenvector coefficients in
 this basis provide a direct interpretation of the MOs in terms of Frontier Orbital Theory.

 The SFOs are combined with auxiliary Core Functions (CFs) to ensure orthogonalization on the (frozen)
 Core Orbitals (COs). The Core-orthogonalized SFOs (CSFOs) constitute the true Fock basis.

 The FOs, and hence also the (C)SFOs are combinations of the elementary basis functions (BAS). The basis
 functions that participate in the description of the SFOs depend on the irrep. The indices of the
 involved functions are printed below for each irrep.
 (The complete list of primitive basis functions is printed in another section)

 Total nr. of (C)SFOs (summation over all irreps) :   218

 NOTE: a (C)SFO that is defined as a combination of more than one FO is usually NOT normalized.



                                       === A ===
 Nr. of SFOs :  218
 Cartesian basis functions that participate in this irrep (total number =   241) :
      1     2     3     4     5     6     7     8    18    19
     20     9    12    15    21    24    27    10    13    16
     22    25    28    11    14    17    23    26    29    30
     31    32    33    34    35    36    37    38    39    40
     41    42    43    44    45    46    47    48    49    50
     51    52    53    54    55    58    61    64    56    59
     62    65    57    60    63    66    67    68    69    70
     71    72    73    74    75    76    77    78    79    80
     81    82    83    84    85    86    87    88    89    90
     91    92    95    98   101    93    96    99   102    94
     97   100   103   104   105   106   107   108   109   110
    111   112   113   114   115   116   117   118   119   120
    121   122   123   124   125   126   127   128   129   132
    135   138   130   133   136   139   131   134   137   140
    141   142   143   144   145   146   147   148   149   150
    151   152   153   154   155   156   157   158   159   160
    161   162   163   164   165   166   169   172   175   167
    170   173   176   168   171   174   177   178   179   180
    181   182   183   184   185   186   187   188   189   190
    191   192   193   194   195   196   197   198   199   200
    201   202   203   204   205   206   207   208   209   210
    211   212   213   214   215   216   217   218   219   220
    221   222   223   224   225   226   227   228   229   230
    231   232   233   234   235   236   237   238   239   240
    241

    SFO  (index         Fragment          Generating    Expansion in Fragment Orbitals
  indx  incl.CFs)   Occup   Orb.Energy   FragmentType  Coeff.   Orbital     on Fragment
 --------------------------------------------------------------------------------------
     1       1      2.000     -76.338 au  P             1.00      1 S               1
                        (   -2077.266 eV)
     2       2      2.000      -6.405 au  P             1.00      2 S               1
                        (    -174.300 eV)
     3       3      2.000      -0.512 au  P             1.00      3 S               1
                        (     -13.925 eV)
     4       4       --         0.126 au  P             1.00      4 S               1
                        (       3.441 eV)
     5       5       --         1.313 au  P             1.00      5 S               1
                        (      35.717 eV)
     6       6       --         8.272 au  P             1.00      6 S               1
                        (     225.083 eV)
     7       7       --        72.361 au  P             1.00      7 S               1
                        (    1969.036 eV)
     8       8       --       489.568 au  P             1.00      8 S               1
                        (   13321.833 eV)
     9       9       --      3735.677 au  P             1.00      9 S               1
                        (  101652.956 eV)
    10      10       --     50530.643 au  P             1.00     10 S               1
                        ( 1375008.754 eV)
    11      11       --   1301295.342 au  P             1.00     11 S               1
                        (35410047.923 eV)
    12      12      2.000      -4.608 au  P             1.00      1 P:x             1
                        (    -125.385 eV)
    13      13      1.000      -0.204 au  P             1.00      2 P:x             1
                        (      -5.540 eV)
    14      14       --         0.085 au  P             1.00      3 P:x             1
                        (       2.324 eV)
    15      15       --         0.871 au  P             1.00      4 P:x             1
                        (      23.698 eV)
    16      16       --         9.178 au  P             1.00      5 P:x             1
                        (     249.742 eV)
    17      17       --       120.128 au  P             1.00      6 P:x             1
                        (    3268.845 eV)
    18      18      2.000      -4.608 au  P             1.00      1 P:y             1
                        (    -125.385 eV)
    19      19      1.000      -0.204 au  P             1.00      2 P:y             1
                        (      -5.540 eV)
    20      20       --         0.085 au  P             1.00      3 P:y             1
                        (       2.324 eV)
    21      21       --         0.871 au  P             1.00      4 P:y             1
                        (      23.698 eV)
    22      22       --         9.178 au  P             1.00      5 P:y             1
                        (     249.742 eV)
    23      23       --       120.128 au  P             1.00      6 P:y             1
                        (    3268.845 eV)
    24      24      2.000      -4.608 au  P             1.00      1 P:z             1
                        (    -125.385 eV)
    25      25      1.000      -0.204 au  P             1.00      2 P:z             1
                        (      -5.540 eV)
    26      26       --         0.085 au  P             1.00      3 P:z             1
                        (       2.324 eV)
    27      27       --         0.871 au  P             1.00      4 P:z             1
                        (      23.698 eV)
    28      28       --         9.178 au  P             1.00      5 P:z             1
                        (     249.742 eV)
    29      29       --       120.128 au  P             1.00      6 P:z             1
                        (    3268.845 eV)
    30      30       --         0.386 au  P             1.00      1 D:z2            1
                        (      10.507 eV)
    31      31       --         0.386 au  P             1.00      1 D:x2-y2         1
                        (      10.507 eV)
    32      32       --         0.386 au  P             1.00      1 D:xy            1
                        (      10.507 eV)
    33      33       --         0.386 au  P             1.00      1 D:xz            1
                        (      10.507 eV)
    34      34       --         0.386 au  P             1.00      1 D:yz            1
                        (      10.507 eV)
    35      35       --         1.145 au  P             1.00      1 F:z3            1
                        (      31.166 eV)
    36      36       --         1.145 au  P             1.00      1 F:z             1
                        (      31.166 eV)
    37      37       --         1.145 au  P             1.00      1 F:xyz           1
                        (      31.166 eV)
    38      38       --         1.145 au  P             1.00      1 F:z2x           1
                        (      31.166 eV)
    39      39       --         1.145 au  P             1.00      1 F:z2y           1
                        (      31.166 eV)
    40      40       --         1.145 au  P             1.00      1 F:x             1
                        (      31.166 eV)
    41      41       --         1.145 au  P             1.00      1 F:y             1
                        (      31.166 eV)
    42      42      2.000     -18.893 au  O             1.00      1 S               2
                        (    -514.113 eV)
    43      43      2.000      -0.889 au  O             1.00      2 S               2
                        (     -24.185 eV)
    44      44       --         0.742 au  O             1.00      3 S               2
                        (      20.197 eV)
    45      45       --         9.224 au  O             1.00      4 S               2
                        (     251.010 eV)
    46      46       --        47.532 au  O             1.00      5 S               2
                        (    1293.419 eV)
    47      47       --       212.438 au  O             1.00      6 S               2
                        (    5780.720 eV)
    48      48       --      1271.753 au  O             1.00      7 S               2
                        (   34606.147 eV)
    49      49       --     14992.289 au  O             1.00      8 S               2
                        (  407960.936 eV)
    50      50       --    372064.755 au  O             1.00      9 S               2
                        (10124397.116 eV)
    51      51      1.333      -0.328 au  O             1.00      1 P:x             2
                        (      -8.935 eV)
    52      52       --         0.352 au  O             1.00      2 P:x             2
                        (       9.565 eV)
    53      53       --         3.470 au  O             1.00      3 P:x             2
                        (      94.414 eV)
    54      54       --        37.352 au  O             1.00      4 P:x             2
                        (    1016.405 eV)
    55      55      1.333      -0.328 au  O             1.00      1 P:y             2
                        (      -8.935 eV)
    56      56       --         0.352 au  O             1.00      2 P:y             2
                        (       9.565 eV)
    57      57       --         3.470 au  O             1.00      3 P:y             2
                        (      94.414 eV)
    58      58       --        37.352 au  O             1.00      4 P:y             2
                        (    1016.405 eV)
    59      59      1.333      -0.328 au  O             1.00      1 P:z             2
                        (      -8.935 eV)
    60      60       --         0.352 au  O             1.00      2 P:z             2
                        (       9.565 eV)
    61      61       --         3.470 au  O             1.00      3 P:z             2
                        (      94.414 eV)
    62      62       --        37.352 au  O             1.00      4 P:z             2
                        (    1016.405 eV)
    63      63       --         1.070 au  O             1.00      1 D:z2            2
                        (      29.124 eV)
    64      64       --         1.070 au  O             1.00      1 D:x2-y2         2
                        (      29.124 eV)
    65      65       --         1.070 au  O             1.00      1 D:xy            2
                        (      29.124 eV)
    66      66       --         1.070 au  O             1.00      1 D:xz            2
                        (      29.124 eV)
    67      67       --         1.070 au  O             1.00      1 D:yz            2
                        (      29.124 eV)
    68      68       --         3.346 au  O             1.00      1 F:z3            2
                        (      91.061 eV)
    69      69       --         3.346 au  O             1.00      1 F:z             2
                        (      91.061 eV)
    70      70       --         3.346 au  O             1.00      1 F:xyz           2
                        (      91.061 eV)
    71      71       --         3.346 au  O             1.00      1 F:z2x           2
                        (      91.061 eV)
    72      72       --         3.346 au  O             1.00      1 F:z2y           2
                        (      91.061 eV)
    73      73       --         3.346 au  O             1.00      1 F:x             2
                        (      91.061 eV)
    74      74       --         3.346 au  O             1.00      1 F:y             2
                        (      91.061 eV)
    75      75      2.000     -18.893 au  O             1.00      1 S               3
                        (    -514.113 eV)
    76      76      2.000      -0.889 au  O             1.00      2 S               3
                        (     -24.185 eV)
    77      77       --         0.742 au  O             1.00      3 S               3
                        (      20.197 eV)
    78      78       --         9.224 au  O             1.00      4 S               3
                        (     251.010 eV)
    79      79       --        47.532 au  O             1.00      5 S               3
                        (    1293.419 eV)
    80      80       --       212.438 au  O             1.00      6 S               3
                        (    5780.720 eV)
    81      81       --      1271.753 au  O             1.00      7 S               3
                        (   34606.147 eV)
    82      82       --     14992.289 au  O             1.00      8 S               3
                        (  407960.936 eV)
    83      83       --    372064.755 au  O             1.00      9 S               3
                        (10124397.116 eV)
    84      84      1.333      -0.328 au  O             1.00      1 P:x             3
                        (      -8.935 eV)
    85      85       --         0.352 au  O             1.00      2 P:x             3
                        (       9.565 eV)
    86      86       --         3.470 au  O             1.00      3 P:x             3
                        (      94.414 eV)
    87      87       --        37.352 au  O             1.00      4 P:x             3
                        (    1016.405 eV)
    88      88      1.333      -0.328 au  O             1.00      1 P:y             3
                        (      -8.935 eV)
    89      89       --         0.352 au  O             1.00      2 P:y             3
                        (       9.565 eV)
    90      90       --         3.470 au  O             1.00      3 P:y             3
                        (      94.414 eV)
    91      91       --        37.352 au  O             1.00      4 P:y             3
                        (    1016.405 eV)
    92      92      1.333      -0.328 au  O             1.00      1 P:z             3
                        (      -8.935 eV)
    93      93       --         0.352 au  O             1.00      2 P:z             3
                        (       9.565 eV)
    94      94       --         3.470 au  O             1.00      3 P:z             3
                        (      94.414 eV)
    95      95       --        37.352 au  O             1.00      4 P:z             3
                        (    1016.405 eV)
    96      96       --         1.070 au  O             1.00      1 D:z2            3
                        (      29.124 eV)
    97      97       --         1.070 au  O             1.00      1 D:x2-y2         3
                        (      29.124 eV)
    98      98       --         1.070 au  O             1.00      1 D:xy            3
                        (      29.124 eV)
    99      99       --         1.070 au  O             1.00      1 D:xz            3
                        (      29.124 eV)
   100     100       --         1.070 au  O             1.00      1 D:yz            3
                        (      29.124 eV)
   101     101       --         3.346 au  O             1.00      1 F:z3            3
                        (      91.061 eV)
   102     102       --         3.346 au  O             1.00      1 F:z             3
                        (      91.061 eV)
   103     103       --         3.346 au  O             1.00      1 F:xyz           3
                        (      91.061 eV)
   104     104       --         3.346 au  O             1.00      1 F:z2x           3
                        (      91.061 eV)
   105     105       --         3.346 au  O             1.00      1 F:z2y           3
                        (      91.061 eV)
   106     106       --         3.346 au  O             1.00      1 F:x             3
                        (      91.061 eV)
   107     107       --         3.346 au  O             1.00      1 F:y             3
                        (      91.061 eV)
   108     108      2.000     -18.893 au  O             1.00      1 S               4
                        (    -514.113 eV)
   109     109      2.000      -0.889 au  O             1.00      2 S               4
                        (     -24.185 eV)
   110     110       --         0.742 au  O             1.00      3 S               4
                        (      20.197 eV)
   111     111       --         9.224 au  O             1.00      4 S               4
                        (     251.010 eV)
   112     112       --        47.532 au  O             1.00      5 S               4
                        (    1293.419 eV)
   113     113       --       212.438 au  O             1.00      6 S               4
                        (    5780.720 eV)
   114     114       --      1271.753 au  O             1.00      7 S               4
                        (   34606.147 eV)
   115     115       --     14992.289 au  O             1.00      8 S               4
                        (  407960.936 eV)
   116     116       --    372064.755 au  O             1.00      9 S               4
                        (10124397.116 eV)
   117     117      1.333      -0.328 au  O             1.00      1 P:x             4
                        (      -8.935 eV)
   118     118       --         0.352 au  O             1.00      2 P:x             4
                        (       9.565 eV)
   119     119       --         3.470 au  O             1.00      3 P:x             4
                        (      94.414 eV)
   120     120       --        37.352 au  O             1.00      4 P:x             4
                        (    1016.405 eV)
   121     121      1.333      -0.328 au  O             1.00      1 P:y             4
                        (      -8.935 eV)
   122     122       --         0.352 au  O             1.00      2 P:y             4
                        (       9.565 eV)
   123     123       --         3.470 au  O             1.00      3 P:y             4
                        (      94.414 eV)
   124     124       --        37.352 au  O             1.00      4 P:y             4
                        (    1016.405 eV)
   125     125      1.333      -0.328 au  O             1.00      1 P:z             4
                        (      -8.935 eV)
   126     126       --         0.352 au  O             1.00      2 P:z             4
                        (       9.565 eV)
   127     127       --         3.470 au  O             1.00      3 P:z             4
                        (      94.414 eV)
   128     128       --        37.352 au  O             1.00      4 P:z             4
                        (    1016.405 eV)
   129     129       --         1.070 au  O             1.00      1 D:z2            4
                        (      29.124 eV)
   130     130       --         1.070 au  O             1.00      1 D:x2-y2         4
                        (      29.124 eV)
   131     131       --         1.070 au  O             1.00      1 D:xy            4
                        (      29.124 eV)
   132     132       --         1.070 au  O             1.00      1 D:xz            4
                        (      29.124 eV)
   133     133       --         1.070 au  O             1.00      1 D:yz            4
                        (      29.124 eV)
   134     134       --         3.346 au  O             1.00      1 F:z3            4
                        (      91.061 eV)
   135     135       --         3.346 au  O             1.00      1 F:z             4
                        (      91.061 eV)
   136     136       --         3.346 au  O             1.00      1 F:xyz           4
                        (      91.061 eV)
   137     137       --         3.346 au  O             1.00      1 F:z2x           4
                        (      91.061 eV)
   138     138       --         3.346 au  O             1.00      1 F:z2y           4
                        (      91.061 eV)
   139     139       --         3.346 au  O             1.00      1 F:x             4
                        (      91.061 eV)
   140     140       --         3.346 au  O             1.00      1 F:y             4
                        (      91.061 eV)
   141     141      2.000     -18.893 au  O             1.00      1 S               5
                        (    -514.113 eV)
   142     142      2.000      -0.889 au  O             1.00      2 S               5
                        (     -24.185 eV)
   143     143       --         0.742 au  O             1.00      3 S               5
                        (      20.197 eV)
   144     144       --         9.224 au  O             1.00      4 S               5
                        (     251.010 eV)
   145     145       --        47.532 au  O             1.00      5 S               5
                        (    1293.419 eV)
   146     146       --       212.438 au  O             1.00      6 S               5
                        (    5780.720 eV)
   147     147       --      1271.753 au  O             1.00      7 S               5
                        (   34606.147 eV)
   148     148       --     14992.289 au  O             1.00      8 S               5
                        (  407960.936 eV)
   149     149       --    372064.755 au  O             1.00      9 S               5
                        (10124397.116 eV)
   150     150      1.333      -0.328 au  O             1.00      1 P:x             5
                        (      -8.935 eV)
   151     151       --         0.352 au  O             1.00      2 P:x             5
                        (       9.565 eV)
   152     152       --         3.470 au  O             1.00      3 P:x             5
                        (      94.414 eV)
   153     153       --        37.352 au  O             1.00      4 P:x             5
                        (    1016.405 eV)
   154     154      1.333      -0.328 au  O             1.00      1 P:y             5
                        (      -8.935 eV)
   155     155       --         0.352 au  O             1.00      2 P:y             5
                        (       9.565 eV)
   156     156       --         3.470 au  O             1.00      3 P:y             5
                        (      94.414 eV)
   157     157       --        37.352 au  O             1.00      4 P:y             5
                        (    1016.405 eV)
   158     158      1.333      -0.328 au  O             1.00      1 P:z             5
                        (      -8.935 eV)
   159     159       --         0.352 au  O             1.00      2 P:z             5
                        (       9.565 eV)
   160     160       --         3.470 au  O             1.00      3 P:z             5
                        (      94.414 eV)
   161     161       --        37.352 au  O             1.00      4 P:z             5
                        (    1016.405 eV)
   162     162       --         1.070 au  O             1.00      1 D:z2            5
                        (      29.124 eV)
   163     163       --         1.070 au  O             1.00      1 D:x2-y2         5
                        (      29.124 eV)
   164     164       --         1.070 au  O             1.00      1 D:xy            5
                        (      29.124 eV)
   165     165       --         1.070 au  O             1.00      1 D:xz            5
                        (      29.124 eV)
   166     166       --         1.070 au  O             1.00      1 D:yz            5
                        (      29.124 eV)
   167     167       --         3.346 au  O             1.00      1 F:z3            5
                        (      91.061 eV)
   168     168       --         3.346 au  O             1.00      1 F:z             5
                        (      91.061 eV)
   169     169       --         3.346 au  O             1.00      1 F:xyz           5
                        (      91.061 eV)
   170     170       --         3.346 au  O             1.00      1 F:z2x           5
                        (      91.061 eV)
   171     171       --         3.346 au  O             1.00      1 F:z2y           5
                        (      91.061 eV)
   172     172       --         3.346 au  O             1.00      1 F:x             5
                        (      91.061 eV)
   173     173       --         3.346 au  O             1.00      1 F:y             5
                        (      91.061 eV)
   174     174      1.000      -0.238 au  H             1.00      1 S               6
                        (      -6.469 eV)
   175     175       --         0.058 au  H             1.00      2 S               6
                        (       1.586 eV)
   176     176       --         0.748 au  H             1.00      3 S               6
                        (      20.361 eV)
   177     177       --         4.739 au  H             1.00      4 S               6
                        (     128.961 eV)
   178     178       --        34.422 au  H             1.00      5 S               6
                        (     936.667 eV)
   179     179       --       362.248 au  H             1.00      6 S               6
                        (    9857.266 eV)
   180     180       --      6333.819 au  H             1.00      7 S               6
                        (  172351.981 eV)
   181     181       --         0.409 au  H             1.00      1 P:x             6
                        (      11.125 eV)
   182     182       --         0.409 au  H             1.00      1 P:y             6
                        (      11.125 eV)
   183     183       --         0.409 au  H             1.00      1 P:z             6
                        (      11.125 eV)
   184     184       --         2.560 au  H             1.00      1 D:z2            6
                        (      69.649 eV)
   185     185       --         2.560 au  H             1.00      1 D:x2-y2         6
                        (      69.649 eV)
   186     186       --         2.560 au  H             1.00      1 D:xy            6
                        (      69.649 eV)
   187     187       --         2.560 au  H             1.00      1 D:xz            6
                        (      69.649 eV)
   188     188       --         2.560 au  H             1.00      1 D:yz            6
                        (      69.649 eV)
   189     189      1.000      -0.238 au  H             1.00      1 S               7
                        (      -6.469 eV)
   190     190       --         0.058 au  H             1.00      2 S               7
                        (       1.586 eV)
   191     191       --         0.748 au  H             1.00      3 S               7
                        (      20.361 eV)
   192     192       --         4.739 au  H             1.00      4 S               7
                        (     128.961 eV)
   193     193       --        34.422 au  H             1.00      5 S               7
                        (     936.667 eV)
   194     194       --       362.248 au  H             1.00      6 S               7
                        (    9857.266 eV)
   195     195       --      6333.819 au  H             1.00      7 S               7
                        (  172351.981 eV)
   196     196       --         0.409 au  H             1.00      1 P:x             7
                        (      11.125 eV)
   197     197       --         0.409 au  H             1.00      1 P:y             7
                        (      11.125 eV)
   198     198       --         0.409 au  H             1.00      1 P:z             7
                        (      11.125 eV)
   199     199       --         2.560 au  H             1.00      1 D:z2            7
                        (      69.649 eV)
   200     200       --         2.560 au  H             1.00      1 D:x2-y2         7
                        (      69.649 eV)
   201     201       --         2.560 au  H             1.00      1 D:xy            7
                        (      69.649 eV)
   202     202       --         2.560 au  H             1.00      1 D:xz            7
                        (      69.649 eV)
   203     203       --         2.560 au  H             1.00      1 D:yz            7
                        (      69.649 eV)
   204     204      1.000      -0.238 au  H             1.00      1 S               8
                        (      -6.469 eV)
   205     205       --         0.058 au  H             1.00      2 S               8
                        (       1.586 eV)
   206     206       --         0.748 au  H             1.00      3 S               8
                        (      20.361 eV)
   207     207       --         4.739 au  H             1.00      4 S               8
                        (     128.961 eV)
   208     208       --        34.422 au  H             1.00      5 S               8
                        (     936.667 eV)
   209     209       --       362.248 au  H             1.00      6 S               8
                        (    9857.266 eV)
   210     210       --      6333.819 au  H             1.00      7 S               8
                        (  172351.981 eV)
   211     211       --         0.409 au  H             1.00      1 P:x             8
                        (      11.125 eV)
   212     212       --         0.409 au  H             1.00      1 P:y             8
                        (      11.125 eV)
   213     213       --         0.409 au  H             1.00      1 P:z             8
                        (      11.125 eV)
   214     214       --         2.560 au  H             1.00      1 D:z2            8
                        (      69.649 eV)
   215     215       --         2.560 au  H             1.00      1 D:x2-y2         8
                        (      69.649 eV)
   216     216       --         2.560 au  H             1.00      1 D:xy            8
                        (      69.649 eV)
   217     217       --         2.560 au  H             1.00      1 D:xz            8
                        (      69.649 eV)
   218     218       --         2.560 au  H             1.00      1 D:yz            8
                        (      69.649 eV)



 ================================
 (Slater-type)  F U N C T I O N S  ***  (Basis and Fit)  ***
 ================================
  

 Atom Type    1  (P)
 ==============

 Valence Basis Sets:  19
 -----------------------
   1 S 1500.000000
   1 S  300.000000
   1 S   75.000000
   1 S   30.000000
   1 S   18.000000
   1 S   13.350000
   2 S    5.600000
   2 S    4.050000
   2 P   18.000000
   2 P    7.450000
   2 P    4.100000
   3 S    2.700000
   3 S    1.850000
   3 S    1.300000
   3 P    2.300000
   3 P    1.350000
   3 P    0.850000
   3 D    1.900000
   4 F    2.000000

 Atom Type    2  (O)
 ==============

 Valence Basis Sets:  15
 -----------------------
   1 S  800.000000
   1 S  160.000000
   1 S   40.000000
   1 S   16.000000
   1 S    9.800000
   1 S    6.800000
   2 S    7.580000
   2 S    2.880000
   2 S    1.720000
   2 P    9.800000
   2 P    4.080000
   2 P    2.080000
   2 P    1.120000
   3 D    2.000000
   4 F    3.000000

 Atom Type    3  (H)
 ==============

 Valence Basis Sets:   9
 -----------------------
   1 S  100.000000
   1 S   25.000000
   1 S    7.500000
   1 S    3.000000
   1 S    0.690000
   1 S    0.920000
   1 S    1.580000
   2 P    1.250000
   3 D    2.500000


 BAS: List of all Elementary Cartesian Basis Functions
 =====================================================

 The numbering in the list below (to the right of the function characteristics) is referred
 to in print-outs of MO eigenvectors and Mulliken populations in the BAS representation
 (as contrasted to the SFO representation).

 Notes:
 1. The functions are characterized by a polynomial prefactor (powers of x,y,z and r) and
    an exponential decay factor alpha.
 2. Since the basis sets are specific for an atom TYPE, the individual functions occur on
    all atoms of that type.
 3. The word 'Core' in the left margin signals that it is a Core Function (CF) : not a
    degree of freedom in the valence set, but only used to ensure orthogonalization of
    the other valence basis functions on the frozen Core Orbitals.


 (power of) X  Y  Z  R     Alpha  on Atom
            ==========     =====     ==========

 P                                    1
                                  ---------------------------------------------------------------------------
            0  0  0  0  1500.000      1
            0  0  0  0   300.000      2
            0  0  0  0    75.000      3
            0  0  0  0    30.000      4
            0  0  0  0    18.000      5
            0  0  0  0    13.350      6
            0  0  0  1     5.600      7
            0  0  0  1     4.050      8
            1  0  0  0    18.000      9
            0  1  0  0    18.000     10
            0  0  1  0    18.000     11
            1  0  0  0     7.450     12
            0  1  0  0     7.450     13
            0  0  1  0     7.450     14
            1  0  0  0     4.100     15
            0  1  0  0     4.100     16
            0  0  1  0     4.100     17
            0  0  0  2     2.700     18
            0  0  0  2     1.850     19
            0  0  0  2     1.300     20
            1  0  0  1     2.300     21
            0  1  0  1     2.300     22
            0  0  1  1     2.300     23
            1  0  0  1     1.350     24
            0  1  0  1     1.350     25
            0  0  1  1     1.350     26
            1  0  0  1     0.850     27
            0  1  0  1     0.850     28
            0  0  1  1     0.850     29
            2  0  0  0     1.900     30
            1  1  0  0     1.900     31
            1  0  1  0     1.900     32
            0  2  0  0     1.900     33
            0  1  1  0     1.900     34
            0  0  2  0     1.900     35
            3  0  0  0     2.000     36
            2  1  0  0     2.000     37
            2  0  1  0     2.000     38
            1  2  0  0     2.000     39
            1  1  1  0     2.000     40
            1  0  2  0     2.000     41
            0  3  0  0     2.000     42
            0  2  1  0     2.000     43
            0  1  2  0     2.000     44
            0  0  3  0     2.000     45

 O                                    2    3    4    5
                                  ---------------------------------------------------------------------------
            0  0  0  0   800.000     46   83  120  157
            0  0  0  0   160.000     47   84  121  158
            0  0  0  0    40.000     48   85  122  159
            0  0  0  0    16.000     49   86  123  160
            0  0  0  0     9.800     50   87  124  161
            0  0  0  0     6.800     51   88  125  162
            0  0  0  1     7.580     52   89  126  163
            0  0  0  1     2.880     53   90  127  164
            0  0  0  1     1.720     54   91  128  165
            1  0  0  0     9.800     55   92  129  166
            0  1  0  0     9.800     56   93  130  167
            0  0  1  0     9.800     57   94  131  168
            1  0  0  0     4.080     58   95  132  169
            0  1  0  0     4.080     59   96  133  170
            0  0  1  0     4.080     60   97  134  171
            1  0  0  0     2.080     61   98  135  172
            0  1  0  0     2.080     62   99  136  173
            0  0  1  0     2.080     63  100  137  174
            1  0  0  0     1.120     64  101  138  175
            0  1  0  0     1.120     65  102  139  176
            0  0  1  0     1.120     66  103  140  177
            2  0  0  0     2.000     67  104  141  178
            1  1  0  0     2.000     68  105  142  179
            1  0  1  0     2.000     69  106  143  180
            0  2  0  0     2.000     70  107  144  181
            0  1  1  0     2.000     71  108  145  182
            0  0  2  0     2.000     72  109  146  183
            3  0  0  0     3.000     73  110  147  184
            2  1  0  0     3.000     74  111  148  185
            2  0  1  0     3.000     75  112  149  186
            1  2  0  0     3.000     76  113  150  187
            1  1  1  0     3.000     77  114  151  188
            1  0  2  0     3.000     78  115  152  189
            0  3  0  0     3.000     79  116  153  190
            0  2  1  0     3.000     80  117  154  191
            0  1  2  0     3.000     81  118  155  192
            0  0  3  0     3.000     82  119  156  193

 H                                    6    7    8
                                  ---------------------------------------------------------------------------
            0  0  0  0   100.000    194  210  226
            0  0  0  0    25.000    195  211  227
            0  0  0  0     7.500    196  212  228
            0  0  0  0     3.000    197  213  229
            0  0  0  0     0.690    198  214  230
            0  0  0  0     0.920    199  215  231
            0  0  0  0     1.580    200  216  232
            1  0  0  0     1.250    201  217  233
            0  1  0  0     1.250    202  218  234
            0  0  1  0     1.250    203  219  235
            2  0  0  0     2.500    204  220  236
            1  1  0  0     2.500    205  221  237
            1  0  1  0     2.500    206  222  238
            0  2  0  0     2.500    207  223  239
            0  1  1  0     2.500    208  224  240
            0  0  2  0     2.500    209  225  241

 Total number of charge fitting functions (nprimf)      1338
 Total number of Cartesian basis functions (naos)        241
 Total number of Cartesian core functions  (ncos)          0

1
 ***************************************************************************************************



                                              ***********************
                                              *  T E C H N I C A L  *
                                              ***********************
  



 =============================================================
 P A R A L L E L I Z A T I O N  and  V E C T O R I Z A T I O N
 =============================================================
  
 Nr of parallel processes:                                4
 Maximum vector length in NumInt loops:                 128



 =====================
 S C F   U P D A T E S
 =====================
  
 Max. nr. of cycles:                               300
 Convergence criterion:                              0.0000010000
   secondary criterion:                              0.0010000000

 Mix parameter (when DIIS does not apply):           0.2000000000
 Mixed ADIIS+SDIIS will be used                  
    Max number of expansion vectors:                10
    Pure ADIIS when Max([F,P]) is above              0.1000000000
    Pure SDIIS when Max([F,P]) is below              0.0010000000
 Automatic ElectronSmearing (in case of problematic SCF convergence) disabled



 =================
 P R E C I S I O N  ***  (General: NumInt, NeglectFunctionTails, ...)  ***
 =================
  

 NumInt:           Target precision:                 6.0000000000
 -------           Initial precision:                6.0000000000
                   Min. precision (optimization):    6.0000000000

 Neglect Functions:          Basis functions:        0.1000000000E-07
 ------------------          Fit functions:          0.1000000000E-07



 ===========================
 L I N E A R   S C A L I N G
 ===========================
  

 Cut-off radii density fit:                        0.1000000000E-09
 Overlap cut-off criterion AO matrix elements:     0.1000000000E-07
 Cut-offs for Coulomb potential and fitted density:0.1000000000E-09
 Cut-off criterion for Coulomb multipole terms:    0.1000000000E-09
 Progressive Convergence parameter:                 0.000000000    
1
 ***************************************************************************************************



                                            ***************************
                                            *  C O M P U T A T I O N  *
                                            ***************************
  

 Number of elements of the density matrix on this node (used, total):      7540     29161



 ===========================================
 Numerical Integration : Fuzzy Cells (Becke)
 ===========================================
  
 Becke grid quality: GOOD           
  
 Lebedev angular grid order:             min:  11 max:  31
 Nr. of radial points:                   min: 112 max: 222

 Total nr. of points:     286473
 Nr. of blocks:             2239
 Block length:               128
 Nr. of dummy points:        119


 Test of Precision of the Numerical Integration Grid
 ===================================================

 Integral of the Total Core Density:                   0.00000000000000


 -------------------------------------------
  COSMO surface
  Area             =          351.737
  Volume           =          525.957
  Number of Points =          943
 -------------------------------------------



 ========================
 Density Fitting (zlmFit)
 ========================
  
 ZlmFit Fit Quality: GOOD           
  
 Max L-expansion:                        min:   8 max:   9
 Nr. of radial interpolation points:     min: 180 max: 378



 =====
 S C F  ***  ScaSCF  ***
 =====
  
 Initial density matrix is calculated as sum of fragments

 CYCLE    1
 SCF Error: norm([F,P])=      5.916050009272, max([F,P])=      1.363126741988
 orbitals (Q,E):
 ---------------
 A :16...35          ( 2.00    -0.6292)  ( 2.00    -0.5695)  ( 2.00    -0.5202)  ( 2.00    -0.5202)
                     ( 2.00    -0.4905)  ( 2.00    -0.4696)  ( 2.00    -0.4696)  ( 2.00    -0.4415)
                     ( 2.00    -0.4288)  ( 2.00    -0.4288)  ( 0.00    -0.0762)  ( 0.00    -0.0313)
                     ( 0.00    -0.0313)  ( 0.00     0.0063)  ( 0.00     0.0278)  ( 0.00     0.0278)
                     ( 0.00     0.0500)  ( 0.00     0.0673)  ( 0.00     0.0984)  ( 0.00     0.0984)

 CYCLE    2
   MIX coefficients:  0.8000  0.2000
 SCF Error: norm([F,P])=      1.278988529097, max([F,P])=      0.216624103563
 orbitals (Q,E):
 ---------------
 A :16...26          ( 2.00    -0.5864)  ( 2.00    -0.5122)  ( 2.00    -0.4691)  ( 2.00    -0.4691)
                     ( 2.00    -0.4262)  ( 2.00    -0.4170)  ( 2.00    -0.4170)  ( 2.00    -0.3868)
                     ( 2.00    -0.3582)  ( 2.00    -0.3582)  ( 0.00    -0.0587)

 CYCLE    3
  SDIIS (wt  0.000): -0.8435  1.8435
 A-DIIS (wt  1.000):  0.0000  1.0000
  DIIS coefficients:  0.0000  1.0000
 SCF Error: norm([F,P])=      0.603970475432, max([F,P])=      0.102726638688
 orbitals (Q,E):
 ---------------
 A :16...26          ( 2.00    -0.4679)  ( 2.00    -0.3690)  ( 2.00    -0.3321)  ( 2.00    -0.3321)
                     ( 2.00    -0.2778)  ( 2.00    -0.2778)  ( 2.00    -0.2587)  ( 2.00    -0.2366)
                     ( 2.00    -0.1832)  ( 2.00    -0.1832)  ( 0.00    -0.0173)

 CYCLE    4
  SDIIS (wt  0.000):  0.1948  0.3706  0.4347
 A-DIIS (wt  1.000): -0.0000  0.7158  0.2842
  DIIS coefficients: -0.0000  0.7158  0.2842
 SCF Error: norm([F,P])=      1.081812156807, max([F,P])=      0.199119950110
 orbitals (Q,E):
 ---------------
 A :16...26          ( 2.00    -0.5013)  ( 2.00    -0.4177)  ( 2.00    -0.3748)  ( 2.00    -0.3748)
                     ( 2.00    -0.3218)  ( 2.00    -0.3218)  ( 2.00    -0.3214)  ( 2.00    -0.2870)
                     ( 2.00    -0.2520)  ( 2.00    -0.2520)  ( 0.00    -0.0247)

 CYCLE    5
  SDIIS (wt  0.610):  0.0745  0.2650  0.1303  0.5301
 A-DIIS (wt  0.390):  0.0000  0.1065  0.0000  0.8935
  DIIS coefficients:  0.0454  0.2032  0.0795  0.6719
 SCF Error: norm([F,P])=      0.229666355884, max([F,P])=      0.039625440629
 orbitals (Q,E):
 ---------------
 A :16...26          ( 2.00    -0.5262)  ( 2.00    -0.4393)  ( 2.00    -0.4014)  ( 2.00    -0.4014)
                     ( 2.00    -0.3502)  ( 2.00    -0.3502)  ( 2.00    -0.3429)  ( 2.00    -0.3170)
                     ( 2.00    -0.2707)  ( 2.00    -0.2707)  ( 0.00    -0.0301)

 CYCLE    6
  SDIIS (wt  0.813):  0.0086  0.0605 -0.0186  0.4745  0.4750
 A-DIIS (wt  0.187):  0.0000  0.0000  0.0000  0.1977  0.8023
  DIIS coefficients:  0.0070  0.0492 -0.0151  0.4227  0.5362
 SCF Error: norm([F,P])=      0.110015705076, max([F,P])=      0.019533063854
 orbitals (Q,E):
 ---------------
 A :16...26          ( 2.00    -0.5179)  ( 2.00    -0.4347)  ( 2.00    -0.3933)  ( 2.00    -0.3933)
                     ( 2.00    -0.3409)  ( 2.00    -0.3409)  ( 2.00    -0.3404)  ( 2.00    -0.3073)
                     ( 2.00    -0.2712)  ( 2.00    -0.2712)  ( 0.00    -0.0286)

 CYCLE    7
  SDIIS (wt  0.964):  0.0046  0.0095 -0.0067  0.1815  0.3194  0.4918
 A-DIIS (wt  0.036):  0.0000  0.0000  0.0000  0.0000  0.0139  0.9861
  DIIS coefficients:  0.0044  0.0091 -0.0065  0.1750  0.3084  0.5095
 SCF Error: norm([F,P])=      0.026845824670, max([F,P])=      0.004555964402
 orbitals (Q,E):
 ---------------
 A :16...26          ( 2.00    -0.5184)  ( 2.00    -0.4341)  ( 2.00    -0.3937)  ( 2.00    -0.3937)
                     ( 2.00    -0.3415)  ( 2.00    -0.3415)  ( 2.00    -0.3392)  ( 2.00    -0.3081)
                     ( 2.00    -0.2691)  ( 2.00    -0.2691)  ( 0.00    -0.0286)

 CYCLE    8
  SDIIS (wt  1.000):  0.0012  0.0006 -0.0024  0.0420  0.0784  0.1911  0.6891
  DIIS coefficients:  0.0012  0.0006 -0.0024  0.0420  0.0784  0.1911  0.6891
 SCF Error: norm([F,P])=      0.002978016033, max([F,P])=      0.000575978516
 orbitals (Q,E):
 ---------------
 A :16...26          ( 2.00    -0.5184)  ( 2.00    -0.4342)  ( 2.00    -0.3937)  ( 2.00    -0.3937)
                     ( 2.00    -0.3415)  ( 2.00    -0.3415)  ( 2.00    -0.3393)  ( 2.00    -0.3080)
                     ( 2.00    -0.2693)  ( 2.00    -0.2693)  ( 0.00    -0.0286)

 CYCLE    9
  SDIIS (wt  1.000):  0.0001 -0.0004 -0.0002  0.0005  0.0010  0.0202  0.1898  0.7889
  DIIS coefficients:  0.0001 -0.0004 -0.0002  0.0005  0.0010  0.0202  0.1898  0.7889
 SCF Error: norm([F,P])=      0.000334011227, max([F,P])=      0.000063247074
 orbitals (Q,E):
 ---------------
 A :16...26          ( 2.00    -0.5184)  ( 2.00    -0.4342)  ( 2.00    -0.3937)  ( 2.00    -0.3937)
                     ( 2.00    -0.3415)  ( 2.00    -0.3415)  ( 2.00    -0.3393)  ( 2.00    -0.3080)
                     ( 2.00    -0.2693)  ( 2.00    -0.2693)  ( 0.00    -0.0286)

 CYCLE   10
  SDIIS (wt  1.000): -0.0000 -0.0000  0.0000 -0.0003 -0.0004  0.0023  0.0298  0.1557  0.8129
  DIIS coefficients: -0.0000 -0.0000  0.0000 -0.0003 -0.0004  0.0023  0.0298  0.1557  0.8129
 SCF Error: norm([F,P])=      0.000036110785, max([F,P])=      0.000007306882
 orbitals (Q,E):
 ---------------
 A :16...26          ( 2.00    -0.5184)  ( 2.00    -0.4342)  ( 2.00    -0.3937)  ( 2.00    -0.3937)
                     ( 2.00    -0.3415)  ( 2.00    -0.3415)  ( 2.00    -0.3393)  ( 2.00    -0.3080)
                     ( 2.00    -0.2693)  ( 2.00    -0.2693)  ( 0.00    -0.0286)

 CYCLE   11
  SDIIS (wt  1.000): -0.0000 -0.0000  0.0000 -0.0001 -0.0001  0.0001  0.0021  0.0124  0.1415  0.8441
  DIIS coefficients: -0.0000 -0.0000  0.0000 -0.0001 -0.0001  0.0001  0.0021  0.0124  0.1415  0.8441
 SCF Error: norm([F,P])=      0.000004515302, max([F,P])=      0.000000739850
 orbitals (Q,E):
 ---------------
 A :16...26          ( 2.00    -0.5184)  ( 2.00    -0.4342)  ( 2.00    -0.3937)  ( 2.00    -0.3937)
                     ( 2.00    -0.3415)  ( 2.00    -0.3415)  ( 2.00    -0.3393)  ( 2.00    -0.3080)
                     ( 2.00    -0.2693)  ( 2.00    -0.2693)  ( 0.00    -0.0286)

 SCF CONVERGED
 cosmo_calcen: 0.5 (esolb+esolc) (Hartrees) =   -0.018817

 Solvation energy (screening term,uncorrected) =    -11.807855 kcal/mol

 Solvation energy (dispersion and cavitation terms) =      0.527424 kcal/mol
 Solvation Energy Contributions (Hartrees)
          esola   esolb+esolc
     0.01881701   -0.03763403
 esol last cycle   -0.01881701

 CYCLE   12
1
 ***************************************************************************************************



                                                *******************
                                                *  R E S U L T S  *
                                                *******************
  
 *** Using FIT density in Focky
  SDIIS (wt  1.000): -0.0000  0.0000 -0.0000 -0.0000 -0.0000  0.0004  0.0026  0.0481  0.4074  0.5415
  DIIS coefficients: -0.0000  0.0000 -0.0000 -0.0000 -0.0000  0.0004  0.0026  0.0481  0.4074  0.5415
 SCF Error: norm([F,P])=      0.000002185558, max([F,P])=      0.000000481538

 Orbital Energies, per Irrep and Spin:
 ======================================
                        Occup              E (au)              E (eV)       Diff (eV) with prev. cycle
                        -----      --------------------        ------       --------------------------
 A
              16        2.000     -0.51835223480090E+00       -14.105               4.09E-06
              17        2.000     -0.43422314896574E+00       -11.816               9.95E-07
              18        2.000     -0.39367578739347E+00       -10.712              -2.79E-06
              19        2.000     -0.39367421605871E+00       -10.712               3.94E-06
              20        2.000     -0.34150526528931E+00        -9.293              -2.68E-06
              21        2.000     -0.34149758459675E+00        -9.293               4.21E-06
              22        2.000     -0.33930285928996E+00        -9.233               1.01E-06
              23        2.000     -0.30802344226458E+00        -8.382               7.65E-07
              24        2.000     -0.26929831886161E+00        -7.328               9.93E-08
              25        2.000     -0.26929270188815E+00        -7.328               1.10E-06
              26        0.000     -0.28608317221673E-01        -0.778
              27        0.000      0.11725219801472E-01         0.319
              28        0.000      0.11739641960986E-01         0.319
              29        0.000      0.75274661158585E-01         2.048
              30        0.000      0.10188177786524E+00         2.772
              31        0.000      0.10644313695950E+00         2.896
              32        0.000      0.10645164056405E+00         2.897
              33        0.000      0.12371549821718E+00         3.366
              34        0.000      0.12867911449649E+00         3.502
              35        0.000      0.12868696853730E+00         3.502
  
 HOMO :       25 A                -0.26929270188815E+00
 LUMO :       26 A                -0.28608317221673E-01
  
 cosmo_calcen: 0.5 (esolb+esolc) (Hartrees) =   -0.018817

 Solvation energy (screening term,uncorrected) =    -11.807857 kcal/mol

 Solvation energy (dispersion and cavitation terms) =      0.527424 kcal/mol
 Solvation Energy Contributions (Hartrees)
          esola   esolb+esolc
     0.01881702   -0.03763403
 esol last cycle   -0.01881702


 All Electron Calculation, thus no Orbital Energies of the Core Orbitals are calculated


 Fit test: (difference of exact and fit density, squared integrated, result summed over spins)
         Sum-of-Fragments:                             0.00000000001079
         Orthogonalized Fragments:                     0.00003652923164
         SCF:                                          0.00001926049056



 ==========================
 Electron Density at Nuclei
 ==========================
  
 The electron density is calculated at points on a small sphere around the center of a nucleus.
 The printed electron density is the average electron density on these points.
 The radius of the sphere is the printed approximate finite nuclear radius.

         Atom        Nuclear Radius (Angstrom)             Electron Density (a.u.)
         ----        -------------------------             -----------------------
     1)   P                 0.0000412627                             2178.57415
     2)   O                 0.0000345546                              310.61557
     3)   O                 0.0000345546                              310.61607
     4)   O                 0.0000345546                              310.61642
     5)   O                 0.0000345546                              310.99149
     6)   H                 0.0000181514                                0.43866
     7)   H                 0.0000181514                                0.43875
     8)   H                 0.0000181514                                0.43932



 =======================================
 M U L L I K E N   P O P U L A T I O N S
 =======================================
  
 The survey below gives for each atom:
 a) the total charge (Z minus electrons)
 b) the net spin polarization (nr of electrons spin-A minus spin-B)
 c) for each spin the atomic electron valence density (integrated) per L-value.

 Atom              Charge    Spin density          S         P         D         F
 ----              ------    ------------       ------    ------    ------    ------
 1 P               1.3900                       4.8153    7.7606    0.8711    0.1629
 2 O              -0.5057                       3.7699    4.6865    0.0448    0.0045
 3 O              -0.5056                       3.7698    4.6865    0.0448    0.0045
 4 O              -0.5053                       3.7698    4.6862    0.0448    0.0045
 5 O              -0.6949                       3.8291    4.8168    0.0445    0.0045
 6 H               0.2741                       0.5995    0.1150    0.0114    0.0000
 7 H               0.2740                       0.5995    0.1151    0.0114    0.0000
 8 H               0.2735                       0.5999    0.1151    0.0114    0.0000

 Populations of individual BAS functions
 ----------------------------------------
 1 P           -0.0000  0.0000 -0.0001  0.0038  0.5057  1.4442  1.4783  0.5433  0.0071  0.0071
                0.0072  0.7510  0.7510  0.7519  1.2595  1.2595  1.2596  0.2994  0.7987 -0.2579
                0.3360  0.3360  0.3641  0.2946  0.2946  0.1992 -0.0556 -0.0556 -0.0065  0.0944
                0.1475  0.2019  0.0944  0.2019  0.1311  0.0056  0.0181  0.0082  0.0121  0.0200
                0.0339  0.0076  0.0082  0.0339  0.0154
 2 O            0.0000 -0.0000  0.0003 -0.0013  0.4751  1.6717 -0.1840  1.0166  0.7915  0.0032
                0.0037  0.0036  0.2004  0.2597  0.2520  0.9762  1.0682  1.0409  0.0967  0.4024
                0.3794  0.0325  0.0098  0.0148 -0.0135  0.0076 -0.0063  0.0097  0.0107  0.0102
               -0.0064  0.0007 -0.0022 -0.0096 -0.0038  0.0002 -0.0051
 3 O            0.0000 -0.0000  0.0003 -0.0013  0.4757  1.6711 -0.1840  1.0167  0.7914  0.0036
                0.0033  0.0036  0.2515  0.2086  0.2520  1.0516  0.9929  1.0409  0.3502  0.1488
                0.3794 -0.0024  0.0050  0.0078  0.0261  0.0146 -0.0063 -0.0026 -0.0047 -0.0014
                0.0044  0.0006 -0.0008  0.0072  0.0080 -0.0012 -0.0051
 4 O            0.0000 -0.0000  0.0003 -0.0013  0.4754  1.6710 -0.1835  1.0166  0.7915  0.0036
                0.0034  0.0036  0.2383  0.2219  0.2520  1.0387  1.0055  1.0408  0.3017  0.1973
                0.3794  0.0013  0.0086  0.0110  0.0188  0.0114 -0.0063 -0.0036 -0.0026  0.0007
                0.0044  0.0011 -0.0001  0.0062  0.0054 -0.0019 -0.0051
 5 O            0.0000 -0.0000  0.0003 -0.0006  0.4717  1.6570 -0.1652  1.0297  0.8362  0.0031
                0.0031  0.0026  0.2512  0.2512  0.2320  0.9609  0.9609  0.8900  0.4739  0.4740
                0.3138 -0.0058  0.0006  0.0145 -0.0058  0.0145  0.0265 -0.0082 -0.0028 -0.0078
               -0.0028  0.0001  0.0125 -0.0082 -0.0078  0.0125  0.0169
 6 H           -0.0000  0.0000 -0.0011 -0.0001  0.0930  0.0770  0.4306  0.0274  0.0440  0.0436
                0.0055  0.0028  0.0028 -0.0014  0.0013  0.0005
 7 H           -0.0000  0.0000 -0.0011 -0.0002  0.0932  0.0768  0.4308  0.0401  0.0313  0.0436
               -0.0034  0.0032  0.0009  0.0070  0.0031  0.0005
 8 H           -0.0000  0.0000 -0.0011 -0.0007  0.0940  0.0755  0.4321  0.0396  0.0318  0.0436
                0.0043  0.0017  0.0024  0.0008  0.0017  0.0005

 Gross Charges per Atom (Z minus electrons)
 ==========================================
             1.3900   -0.5057   -0.5056   -0.5053   -0.6949    0.2741    0.2740    0.2735
 Net Total:  0.00000000


 Atom-Atom Population Matrix (off-diagonal elements not doubled)
 ===============================================================

     1 :    11.9565
     2 :     0.3733    7.8151
     3 :     0.3733   -0.0305    7.8150
     4 :     0.3732   -0.0305   -0.0305    7.8147
     5 :     0.6879   -0.0391   -0.0391   -0.0391    8.1375
     6 :    -0.0514    0.4138    0.0035    0.0002   -0.0044    0.3623
     7 :    -0.0514    0.0002    0.4138    0.0035   -0.0044    0.0009    0.3624
     8 :    -0.0515    0.0035    0.0002    0.4139   -0.0044    0.0010    0.0009    0.3629



 =================================================
 H I R S H F E L D   C H A R G E   A N A L Y S I S
 =================================================
  
 For each fragment: the (numerical) integral of rho(scf) * rho(fragment)/rho(sum-of-fragments)
 (nuclear charges are included, electrons are counted negative)

 The fragments and their ordering are defined in the early G E O M E T R Y output section.
 If you use single-atom fragments, this usually implies that all atoms of the same
 chemical type are grouped together. This may not be the order in which you listed them
 in the input file!

    1  P                         0.4591
    2  O                        -0.2146
    3  O                        -0.2146
    4  O                        -0.2146
    5  O                        -0.4285
    6  H                         0.2044
    7  H                         0.2044
    8  H                         0.2044

 Sum of these charges (accuracy NumInt/Tails) =          -0.00004349



 =============================
 V O R O N O I   C H A R G E S
 =============================
  
 For each atom: the (numerical) integral of the total electronic charge density in its Voronoi cell,
 i.e. the region of space that is closer to that atom than to any other atom.
 (cf. Wigner-Seitz cells in crystals)

 Within the Voronoi cell the subintegrals over the atomic sphere and the remaining part are evaluated
 separately to give the numbers of electrons (negative charge) in these regions.
 The net total charge in the cell (including the nuclear charge) is also given.

 Values are provided for
    a) the Initial (sum-of-fragments) density
    b) the Orthogonalized-Fragments density
    c) the SCF density
    d) the Voronoi Deformation Density (VDD): the difference SCF-Initial for the complete atomic cell


  Atom                Initial                    OrthFrag                   SCF
             Sphere RestCell NetTotal   Sphere RestCell NetTotal   Sphere RestCell NetTotal      VDD
 -----       ------------------------   ------------------------   ------------------------    -----
    1 P      -9.576   -3.600    1.825   -9.615   -3.839    1.545   -9.551   -3.196    2.252    0.428
    2 O      -2.686   -5.165    0.149   -2.828   -5.071    0.101   -2.706   -5.370   -0.076   -0.225
    3 O      -2.686   -5.164    0.151   -2.828   -5.070    0.103   -2.706   -5.369   -0.075   -0.226
    4 O      -2.686   -5.158    0.156   -2.828   -5.065    0.107   -2.706   -5.366   -0.072   -0.228
    5 O      -2.683   -5.795   -0.478   -2.784   -5.632   -0.416   -2.700   -6.267   -0.967   -0.489
    6 H      -0.087   -1.514   -0.601   -0.089   -1.391   -0.480   -0.107   -1.247   -0.354    0.247
    7 H      -0.087   -1.514   -0.600   -0.089   -1.391   -0.480   -0.107   -1.247   -0.354    0.247
    8 H      -0.087   -1.514   -0.601   -0.089   -1.391   -0.480   -0.107   -1.247   -0.355    0.246
 ---------------------------------------------------------------------------------------------------
 Total NetCharge:              -0.000                     -0.000                     -0.000    0.000
 (accuracy NumInt/Tails)

 Remark: the 'NetTotal' Voronoi charges often do not match the Mulliken and/or Hirshfeld charges very
 well. This is caused by the fact that chemically different atoms are not treated in accordance with
 their relative sizes. (Voronoi cells are defined by boundary planes halfway between the atoms.)
 However, the CHANGES in charge, comparing 'Initial' to 'SCF' for instance, do give a fair indication
 of the flow of charge caused by the relaxation from sum-of-fragments to self-consistency.

 Warning: the absolute accuracy of the VDD charges obtained using the Fuzzy Cells (Becke) integration
 scheme is much poorer than the one obtained with an 'equivalent' Voronoi integration grid. 



 =================================================================
 M U L T I P O L E   D E R I V E D   C H A R G E   A N A L Y S I S
 =================================================================

 This charge analysis uses the atomic multipoles (obtained from the fitted density) up to some level X,
 and reconstructs these multipoles exactly (up to level X) by distributing charges over all atoms.
 This is achieved by using Lagrange multipliers and a weight function to keep the multipoles local.

 Dummy atoms can be included (by setting INCDUM in MDC-block to 1) to obtain a fractional charge.
 This is generally useful and necessary only for small symmetrical molecules, when there are not
 enough degrees of freedom to reconstruct the multipoles.

 Since the atomic multipoles are reconstructed up to level X,
 the molecular multipoles are represented also up to level X.
 The recommended level is to reconstruct up to quadrupole : -> MDC-q charges.

 See: M. Swart, P.Th. van Duijnen, J.G. Snijders, J.Comput.Chem., (2001), p. 79-88.

 ------------------------------------------------------------- 
 Atomic electronic multipole moments from SCF equations (a.u.)
 ------------------------------------------------------------- 

   atom        charge        dip-x     dip-y     dip-z      quad-xx   quad-xy   quad-xz   quad-yy   quad-yz   quad-zz
 --------------------------------------------------------------------------------------------------------------------
    1 P      2.048672    -0.000005 -0.000003  0.167680    -0.064902  0.000035  0.000078 -0.064861 -0.000034  0.129764
    2 O     -0.508977    -0.353753  0.136908 -0.120064     0.667066 -0.111668  0.129645 -0.394413 -0.173859 -0.272653
    3 O     -0.509031     0.058338 -0.374857 -0.120007    -0.274076 -0.250535  0.085718  0.546787  0.199254 -0.272711
    4 O     -0.509011     0.295431  0.237830 -0.120048     0.016015  0.362313 -0.215381  0.256696 -0.025314 -0.272711
    5 O     -0.924502    -0.000065  0.000037 -0.044837    -0.314634 -0.000015 -0.000013 -0.314613  0.000007  0.629247
    6 H      0.134288    -0.129260  0.028979 -0.029201     0.093852 -0.046367  0.062735 -0.056918 -0.031294 -0.036933
    7 H      0.134281     0.039532 -0.126429 -0.029185    -0.079441 -0.020367 -0.004261  0.116417  0.069975 -0.036975
    8 H      0.134281     0.089712  0.097452 -0.029197     0.041003  0.066735 -0.058461 -0.004045 -0.038681 -0.036958

 --------------------------------------- 
 Multipole derived atomic charges (a.u.)
 --------------------------------------- 

 The MDC-m charges are just the Monopole terms in the multipole expansion, while for the MDC-d charges
 also the Dipoles are reconstructed. The usually preferred charges are the MDC-q charges.
 These reconstruct the Monopoles, Dipoles and Quadrupoles (both atomic AND molecular).

        Atom    Level:     MDC-m        MDC-d        MDC-q
 ---------------------------------------------------------
     1     P            2.048672     1.578150     1.880208
     2     O           -0.508977    -0.633964    -0.752228
     3     O           -0.509031    -0.633981    -0.691511
     4     O           -0.509011    -0.633993    -0.669783
     5     O           -0.924502    -0.864365    -0.852510
     6     H            0.134288     0.396079     0.369919
     7     H            0.134281     0.396041     0.367237
     8     H            0.134281     0.396033     0.348667

 ------------------------------------------------ 
 Average absolute deviations in atomic multipoles
 ------------------------------------------------ 

 Stated here are the average differences between the atomic multipoles
 and the reconstructed atomic multipoles (from the distributed charges).
 If these values are not zero, this means there are not enough degrees of freedom,
 to be able to reconstruct the atomic multipoles. (This usually happens only
 for small and/or highly symmetric molecules). If this is the case, one could add
 dummy atoms as extra point charges (and setting INCDUM in MDC-block to 1).

 Level:                                 MDC-d        MDC-q
 ---------------------------------------------------------
 Charge   (a.u.)                       0.0000       0.0000
 Dipole   (Debye)                      0.0000       0.1365
 Quad.    (a.u.)                       0.2186       0.0099

 --------------------------------------- 
 Represented molecular multipole moments
 --------------------------------------- 

 Given here are the Molecular multipole moments from the atomic charges, and from the Fit Density.
 Note that the atomic charges represent the latter, NOT the ones from the Exact density.

            Q (a.u.)             Dipole moment (Debye)                                          Quadrupole moment (a.u.)
                                 x         y         z              xx        xy        xz        yy        yz        zz
------------------------------------------------------------------------------------------------------------------------
MDC-m        -0.0000       -0.0004    0.0000    1.8814          3.9348    0.0002   -0.0002    3.9343    0.0000   -7.8692
MDC-d        -0.0000       -0.0006   -0.0002    1.0557          6.3924   -0.0001   -0.0001    6.3911   -0.0001  -12.7835
MDC-q        -0.0000        0.3179    0.0785    0.1617          5.3870   -0.2917    0.2528    5.8749    0.1322  -11.2618
 
Fit.Dens.    -0.0000       -0.0006   -0.0002    1.0557          6.3356   -0.0001    0.0004    6.3349   -0.0004  -12.6705



 =============
 Dipole Moment  ***  (Debye)  ***
 =============
  
 Vector   :        -0.00054888     -0.00010371      1.05582293
 Magnitude:         1.05582308

 This molecular dipole moment is calculated with analytic integration



 =========================================
 Quadrupole Moment (Buckingham convention)  ***  (a.u.)  ***
 =========================================
  
      quad-xx        quad-xy        quad-xz        quad-yy        quad-yz        quad-zz
      6.33569751     0.00001053     0.00044557     6.33498836    -0.00038735   -12.67068587

 This molecular quadrupole moment is calculated with analytic integration
1



 ===========================
 B O N D I N G   E N E R G Y  ***  (decomposition)  ***
 ===========================
  
*** IMPORTANT NOTE ***

The bond energy is computed as an energy difference between molecule and
fragments. In particular when the fragments are single atoms, they are usually
[...]
 H  (  8):    26.752

 Performing the following coupling computations:
 Nucleus   1 (P ) perturbing 
           2 (O ) responding
           3 (O ) responding
           4 (O ) responding
           5 (O ) responding
           6 (H ) responding
           7 (H ) responding
           8 (H ) responding



 =============================================
 Computation for perturbing ADF-GUI atom: P(1)
 =============================================
  
 
 *** running FC calculation
     computing
     ... matrix elements for perturbing nucleus   1
     ... matrix elements for responding nucleus   2
     ... matrix elements for responding nucleus   3
     ... matrix elements for responding nucleus   4
     ... matrix elements for responding nucleus   5
     ... matrix elements for responding nucleus   6
     ... matrix elements for responding nucleus   7
     ... matrix elements for responding nucleus   8
     ... ZSO / Fermi contact coupling constant(s) 



 ===================================
 CPKS routine for spin-spin coupling  ***  Version 05/08 (scalar)  ***
 ===================================
  
 Using new AO based algorithms for CPKS
    running CPKS for TRIPLET Operator
    using first order VWN potential for LDA perturbation
    Will use LDA kernel
 
 iter.  1 V(1) measure  0.3611296026491E+00
 iter.  2 V(1) measure  0.6216577766422E+00
        2        delta  0.2605281739931E+00
 iter.  3 V(1) measure  0.6265800752796E+00
        3        delta  0.4922298637357E-02
 iter.  4 V(1) measure  0.6265933397153E+00
        4        delta  0.1326443566796E-04
 *** convergence reached



                                                *******************
                                                *  R E S U L T S  *
                                                *******************
  



 =======================================
  Nucleus 1 (P) perturbing nucleus 2 (O)
 =======================================
  
 Internal CPL numbering of atoms:  P(1) perturbing  O(2)
 ADF-GUI atoms:  P(1) perturbing  O(2)
  
 ---------------------------------
   Cartesian Axis Representation  
 ---------------------------------

 ----- k (10^19 kg m-2 s-2 A-2) ----         ------------- j (hz) -------------

 fermi-contact contribution:             
  isotropic    k=    -136.588                              j=      90.164
    -136.588       0.000       0.000             90.164       0.000       0.000
       0.000    -136.588       0.000              0.000      90.164       0.000
       0.000       0.000    -136.588              0.000       0.000      90.164

 total calculated spin-spin coupling:    
  isotropic    k=    -136.588                              j=      90.164
    -136.588       0.000       0.000             90.164       0.000       0.000
       0.000    -136.588       0.000              0.000      90.164       0.000
       0.000       0.000    -136.588              0.000       0.000      90.164
 
 ---------------------------------
   Principal Axis Representation  
 ---------------------------------

 ----- k (10^19 kg m-2 s-2 A-2) ----         ------------- j (hz) -------------

 fermi-contact contribution:             
  isotropic    k=    -136.588                              j=      90.164
    -136.588       0.000       0.000             90.164       0.000       0.000
       0.000    -136.588       0.000              0.000      90.164       0.000
       0.000       0.000    -136.588              0.000       0.000      90.164

 total calculated spin-spin coupling:    
  isotropic    k=    -136.588                              j=      90.164
    -136.588       0.000       0.000             90.164       0.000       0.000
       0.000    -136.588       0.000              0.000      90.164       0.000
       0.000       0.000    -136.588              0.000       0.000      90.164
 
 Principal Axis System (u,v,w) expressed in Cartesians:
 (taken as eigenvectors of the symmetric part of the coupling tensor,
  sorted in ascending order of eigenvalues = principal values)
        u         v         w
        1.000     0.000     0.000
        0.000     1.000     0.000
        0.000     0.000     1.000



 =======================================
  Nucleus 1 (P) perturbing nucleus 3 (O)
 =======================================
  
 Internal CPL numbering of atoms:  P(1) perturbing  O(3)
 ADF-GUI atoms:  P(1) perturbing  O(3)
  
 ---------------------------------
   Cartesian Axis Representation  
 ---------------------------------

 ----- k (10^19 kg m-2 s-2 A-2) ----         ------------- j (hz) -------------

 fermi-contact contribution:             
  isotropic    k=    -136.560                              j=      90.146
    -136.560       0.000       0.000             90.146       0.000       0.000
       0.000    -136.560       0.000              0.000      90.146       0.000
       0.000       0.000    -136.560              0.000       0.000      90.146

 total calculated spin-spin coupling:    
  isotropic    k=    -136.560                              j=      90.146
    -136.560       0.000       0.000             90.146       0.000       0.000
       0.000    -136.560       0.000              0.000      90.146       0.000
       0.000       0.000    -136.560              0.000       0.000      90.146
 
 ---------------------------------
   Principal Axis Representation  
 ---------------------------------

 ----- k (10^19 kg m-2 s-2 A-2) ----         ------------- j (hz) -------------

 fermi-contact contribution:             
  isotropic    k=    -136.560                              j=      90.146
    -136.560       0.000       0.000             90.146       0.000       0.000
       0.000    -136.560       0.000              0.000      90.146       0.000
       0.000       0.000    -136.560              0.000       0.000      90.146

 total calculated spin-spin coupling:    
  isotropic    k=    -136.560                              j=      90.146
    -136.560       0.000       0.000             90.146       0.000       0.000
       0.000    -136.560       0.000              0.000      90.146       0.000
       0.000       0.000    -136.560              0.000       0.000      90.146
 
 Principal Axis System (u,v,w) expressed in Cartesians:
 (taken as eigenvectors of the symmetric part of the coupling tensor,
  sorted in ascending order of eigenvalues = principal values)
        u         v         w
        1.000     0.000     0.000
        0.000     1.000     0.000
        0.000     0.000     1.000



 =======================================
  Nucleus 1 (P) perturbing nucleus 4 (O)
 =======================================
  
 Internal CPL numbering of atoms:  P(1) perturbing  O(4)
 ADF-GUI atoms:  P(1) perturbing  O(4)
  
 ---------------------------------
   Cartesian Axis Representation  
 ---------------------------------

 ----- k (10^19 kg m-2 s-2 A-2) ----         ------------- j (hz) -------------

 fermi-contact contribution:             
  isotropic    k=    -136.560                              j=      90.146
    -136.560       0.000       0.000             90.146       0.000       0.000
       0.000    -136.560       0.000              0.000      90.146       0.000
       0.000       0.000    -136.560              0.000       0.000      90.146

 total calculated spin-spin coupling:    
  isotropic    k=    -136.560                              j=      90.146
    -136.560       0.000       0.000             90.146       0.000       0.000
       0.000    -136.560       0.000              0.000      90.146       0.000
       0.000       0.000    -136.560              0.000       0.000      90.146
 
 ---------------------------------
   Principal Axis Representation  
 ---------------------------------

 ----- k (10^19 kg m-2 s-2 A-2) ----         ------------- j (hz) -------------

 fermi-contact contribution:             
  isotropic    k=    -136.560                              j=      90.146
    -136.560       0.000       0.000             90.146       0.000       0.000
       0.000    -136.560       0.000              0.000      90.146       0.000
       0.000       0.000    -136.560              0.000       0.000      90.146

 total calculated spin-spin coupling:    
  isotropic    k=    -136.560                              j=      90.146
    -136.560       0.000       0.000             90.146       0.000       0.000
       0.000    -136.560       0.000              0.000      90.146       0.000
       0.000       0.000    -136.560              0.000       0.000      90.146
 
 Principal Axis System (u,v,w) expressed in Cartesians:
 (taken as eigenvectors of the symmetric part of the coupling tensor,
  sorted in ascending order of eigenvalues = principal values)
        u         v         w
        1.000     0.000     0.000
        0.000     1.000     0.000
        0.000     0.000     1.000



 =======================================
  Nucleus 1 (P) perturbing nucleus 5 (O)
 =======================================
  
 Internal CPL numbering of atoms:  P(1) perturbing  O(5)
 ADF-GUI atoms:  P(1) perturbing  O(5)
  
 ---------------------------------
   Cartesian Axis Representation  
 ---------------------------------

 ----- k (10^19 kg m-2 s-2 A-2) ----         ------------- j (hz) -------------

 fermi-contact contribution:             
  isotropic    k=    -264.355                              j=     174.505
    -264.355       0.000       0.000            174.505       0.000       0.000
       0.000    -264.355       0.000              0.000     174.505       0.000
       0.000       0.000    -264.355              0.000       0.000     174.505

 total calculated spin-spin coupling:    
  isotropic    k=    -264.355                              j=     174.505
    -264.355       0.000       0.000            174.505       0.000       0.000
       0.000    -264.355       0.000              0.000     174.505       0.000
       0.000       0.000    -264.355              0.000       0.000     174.505
 
 ---------------------------------
   Principal Axis Representation  
 ---------------------------------

 ----- k (10^19 kg m-2 s-2 A-2) ----         ------------- j (hz) -------------

 fermi-contact contribution:             
  isotropic    k=    -264.355                              j=     174.505
    -264.355       0.000       0.000            174.505       0.000       0.000
       0.000    -264.355       0.000              0.000     174.505       0.000
       0.000       0.000    -264.355              0.000       0.000     174.505

 total calculated spin-spin coupling:    
  isotropic    k=    -264.355                              j=     174.505
    -264.355       0.000       0.000            174.505       0.000       0.000
       0.000    -264.355       0.000              0.000     174.505       0.000
       0.000       0.000    -264.355              0.000       0.000     174.505
 
 Principal Axis System (u,v,w) expressed in Cartesians:
 (taken as eigenvectors of the symmetric part of the coupling tensor,
  sorted in ascending order of eigenvalues = principal values)
        u         v         w
        1.000     0.000     0.000
        0.000     1.000     0.000
        0.000     0.000     1.000



 =======================================
  Nucleus 1 (P) perturbing nucleus 6 (H)
 =======================================
  
 Internal CPL numbering of atoms:  P(1) perturbing  H(6)
 ADF-GUI atoms:  P(1) perturbing  H(6)
  
 ---------------------------------
   Cartesian Axis Representation  
 ---------------------------------

 ----- k (10^19 kg m-2 s-2 A-2) ----         ------------- j (hz) -------------

 fermi-contact contribution:             
  isotropic    k=       1.283                              j=       6.243
       1.283       0.000       0.000              6.243       0.000       0.000
       0.000       1.283       0.000              0.000       6.243       0.000
       0.000       0.000       1.283              0.000       0.000       6.243

 total calculated spin-spin coupling:    
  isotropic    k=       1.283                              j=       6.243
       1.283       0.000       0.000              6.243       0.000       0.000
       0.000       1.283       0.000              0.000       6.243       0.000
       0.000       0.000       1.283              0.000       0.000       6.243
 
 ---------------------------------
   Principal Axis Representation  
 ---------------------------------

 ----- k (10^19 kg m-2 s-2 A-2) ----         ------------- j (hz) -------------

 fermi-contact contribution:             
  isotropic    k=       1.283                              j=       6.243
       1.283       0.000       0.000              6.243       0.000       0.000
       0.000       1.283       0.000              0.000       6.243       0.000
       0.000       0.000       1.283              0.000       0.000       6.243

 total calculated spin-spin coupling:    
  isotropic    k=       1.283                              j=       6.243
       1.283       0.000       0.000              6.243       0.000       0.000
       0.000       1.283       0.000              0.000       6.243       0.000
       0.000       0.000       1.283              0.000       0.000       6.243
 
 Principal Axis System (u,v,w) expressed in Cartesians:
 (taken as eigenvectors of the symmetric part of the coupling tensor,
  sorted in ascending order of eigenvalues = principal values)
        u         v         w
        1.000     0.000     0.000
        0.000     1.000     0.000
        0.000     0.000     1.000



 =======================================
  Nucleus 1 (P) perturbing nucleus 7 (H)
 =======================================
  
 Internal CPL numbering of atoms:  P(1) perturbing  H(7)
 ADF-GUI atoms:  P(1) perturbing  H(7)
  
 ---------------------------------
   Cartesian Axis Representation  
 ---------------------------------

 ----- k (10^19 kg m-2 s-2 A-2) ----         ------------- j (hz) -------------

 fermi-contact contribution:             
  isotropic    k=       1.283                              j=       6.244
       1.283       0.000       0.000              6.244       0.000       0.000
       0.000       1.283       0.000              0.000       6.244       0.000
       0.000       0.000       1.283              0.000       0.000       6.244

 total calculated spin-spin coupling:    
  isotropic    k=       1.283                              j=       6.244
       1.283       0.000       0.000              6.244       0.000       0.000
       0.000       1.283       0.000              0.000       6.244       0.000
       0.000       0.000       1.283              0.000       0.000       6.244
 
 ---------------------------------
   Principal Axis Representation  
 ---------------------------------

 ----- k (10^19 kg m-2 s-2 A-2) ----         ------------- j (hz) -------------

 fermi-contact contribution:             
  isotropic    k=       1.283                              j=       6.244
       1.283       0.000       0.000              6.244       0.000       0.000
       0.000       1.283       0.000              0.000       6.244       0.000
       0.000       0.000       1.283              0.000       0.000       6.244

 total calculated spin-spin coupling:    
  isotropic    k=       1.283                              j=       6.244
       1.283       0.000       0.000              6.244       0.000       0.000
       0.000       1.283       0.000              0.000       6.244       0.000
       0.000       0.000       1.283              0.000       0.000       6.244
 
 Principal Axis System (u,v,w) expressed in Cartesians:
 (taken as eigenvectors of the symmetric part of the coupling tensor,
  sorted in ascending order of eigenvalues = principal values)
        u         v         w
        1.000     0.000     0.000
        0.000     1.000     0.000
        0.000     0.000     1.000



 =======================================
  Nucleus 1 (P) perturbing nucleus 8 (H)
 =======================================
  
 Internal CPL numbering of atoms:  P(1) perturbing  H(8)
 ADF-GUI atoms:  P(1) perturbing  H(8)
  
 ---------------------------------
   Cartesian Axis Representation  
 ---------------------------------

 ----- k (10^19 kg m-2 s-2 A-2) ----         ------------- j (hz) -------------

 fermi-contact contribution:             
  isotropic    k=       1.285                              j=       6.253
       1.285       0.000       0.000              6.253       0.000       0.000
       0.000       1.285       0.000              0.000       6.253       0.000
       0.000       0.000       1.285              0.000       0.000       6.253

 total calculated spin-spin coupling:    
  isotropic    k=       1.285                              j=       6.253
       1.285       0.000       0.000              6.253       0.000       0.000
       0.000       1.285       0.000              0.000       6.253       0.000
       0.000       0.000       1.285              0.000       0.000       6.253
 
 ---------------------------------
   Principal Axis Representation  
 ---------------------------------

 ----- k (10^19 kg m-2 s-2 A-2) ----         ------------- j (hz) -------------

 fermi-contact contribution:             
  isotropic    k=       1.285                              j=       6.253
       1.285       0.000       0.000              6.253       0.000       0.000
       0.000       1.285       0.000              0.000       6.253       0.000
       0.000       0.000       1.285              0.000       0.000       6.253

 total calculated spin-spin coupling:    
  isotropic    k=       1.285                              j=       6.253
       1.285       0.000       0.000              6.253       0.000       0.000
       0.000       1.285       0.000              0.000       6.253       0.000
       0.000       0.000       1.285              0.000       0.000       6.253
 
 Principal Axis System (u,v,w) expressed in Cartesians:
 (taken as eigenvectors of the symmetric part of the coupling tensor,
  sorted in ascending order of eigenvalues = principal values)
        u         v         w
        1.000     0.000     0.000
        0.000     1.000     0.000
        0.000     0.000     1.000
 *******************************************************************************

                             N M R   E X I T
 NORMAL TERMINATION



 =================
 Timing Statistics
 =================
  
 Total Used :                     CPU=       11.97      System=        0.06     Elapsed=       12.73

 Calls  Section                     ( Mean, Percentage )
 ---------------------------------------------------------------------------------------------------
     3  ><      ................      0.00    0.11             0.00    0.01             0.00    0.10
     1  GENPT   ................      0.59    4.90             0.05   85.65             0.72    5.64
     8  CALFC   ................      0.92   61.33             0.00    6.57             0.96   60.64
     1  FCPT1   ................      4.03   33.66             0.00    2.02             4.27   33.56
     1  FCCPL   ................      0.00    0.00             0.00    0.00             0.00    0.00
     1  JCOUPL  ................      0.00    0.00             0.00    2.77             0.00    0.04
     1  EXIT PROCEDURE .........      0.00    0.00             0.00    2.98             0.00    0.01


 Currently Open Files (EXIT00)
 ====================

 Unit    Access Format  Status   Type       Ident (file)
 -------------------------------------------------------
   3      SEQ    FORM   TRANSP  NORMAL      LOGFILE
                                          ( /home/milias/work/projects/open-collection/theoretical_chemistry/projects/nmr_diplomovky/reference_compounds/phosphoric_acid/ams/pbe0_tz2p_good/cosmo-chcl3/opbe_tz2p-j_good-cosmo-chcl3/phosphoric_acid.nmrshield_opbe_tz2p-j_good_cosmo-chcl3.logfile )
