8
 energy: -1.071646921475 gnorm: 0.010700469795 xtb: 6.7.1 (edcfbbe)
c            0.96526920422185       -0.01259700005510        0.09128440039926
c            2.47705391083403       -0.01259700005510        0.09128470039926
h            0.58074360254003        0.74698190326712       -0.59601190260681
h            0.58074330254003        0.20282960088713        1.09274710477941
h            0.58074360254003       -0.98760260431954       -0.22288210097483
h            2.86157961251586        0.96240860420934        0.40545120177334
h            2.86157981251585       -0.22802360099732       -0.91017810398090
h            2.86157961251586       -0.77217590337731        0.77858100340533
8
 energy: -1.071894611939 gnorm: 0.007188565957 xtb: 6.7.1 (edcfbbe)
c            0.96419813299992       -0.01259701099059        0.09128440555787
c            2.47810301568364       -0.01259699075928        0.09128468002869
h            0.57106203810795        0.74417719707051       -0.59347412368273
h            0.57106176676573        0.20203413736994        1.08904927443950
h            0.57106204398916       -0.98400242425162       -0.22172205765147
h            2.87126847864404        0.95879736447759        0.40428758444918
h            2.87126870048129       -0.22722569027975       -0.90646887759499
h            2.87126848355182       -0.76936258307757        0.77603541764800
8
 energy: -1.072021073570 gnorm: 0.001479829862 xtb: 6.7.1 (edcfbbe)
c            0.96382093371542       -0.01259702345637        0.09128441636100
c            2.47846855749115       -0.01259697885140        0.09128465437735
h            0.55865315449900        0.74031114335205       -0.58997600767286
h            0.55865291390006        0.20093766369576        1.08395213547802
h            0.55865315260485       -0.97903989620164       -0.22012304638625
h            2.88368123588096        0.95382945146457        0.40268682594162
h            2.88368147935360       -0.22612802522565       -0.90136616732951
h            2.88368123277850       -0.76549233521809        0.77253349242467
8
 energy: -1.072022914872 gnorm: 0.000452150209 xtb: 6.7.1 (edcfbbe)
c            0.96460085932632       -0.01259702202807        0.09128441915841
c            2.47770717566261       -0.01259697907865        0.09128465473144
h            0.55905631925118        0.74027430114829       -0.58994267424801
h            0.55905607499359        0.20092721891802        1.08390357180944
h            0.55905630852335       -0.97899261693346       -0.22010781762406
h            2.88327189841040        0.95379144555860        0.40267458536644
h            2.88327213684159       -0.22611963202375       -0.90132713208068
h            2.88327188721452       -0.76546271600175        0.77250669608108
