 argument  1 = /lustre/ukt/milias/work/projects/open-collection/theoretical_chemistry/projects/adsorbate_on_surface/on_quartz/quartz/nwchem/Quartz-G_molecular_slab_153atoms/ecp/Q-G.ecp_b3lyp.nw



============================== echo of input deck ==============================
echo

start molecule

print low

title "Q-G ecp"
charge 0

geometry units angstroms print xyz autosym
  load format xyz QuartzG153at.xyz
end

basis
 * library lanl2dz_ecp
end

ecp
  Si library lanl2dz_ecp
end

dft
  xc b3lyp
  mult 1
  maxiter 100
end

task dft energy
================================================================================


                                         
                                         


             Northwest Computational Chemistry Package (NWChem) 7.2.0
             --------------------------------------------------------


                    Environmental Molecular Sciences Laboratory
                       Pacific Northwest National Laboratory
                                Richland, WA 99352

                              Copyright (c) 1994-2022
                       Pacific Northwest National Laboratory
                            Battelle Memorial Institute

             NWChem is an open-source computational chemistry package
                        distributed under the terms of the
                      Educational Community License (ECL) 2.0
             A copy of the license is included with this distribution
                              in the LICENSE.TXT file

                                  ACKNOWLEDGMENT
                                  --------------

            This software and its documentation were developed at the
            EMSL at Pacific Northwest National Laboratory, a multiprogram
            national laboratory, operated for the U.S. Department of Energy
            by Battelle under Contract Number DE-AC05-76RL01830. Support
            for this work was provided by the Department of Energy Office
            of Biological and Environmental Research, Office of Basic
            Energy Sciences, and the Office of Advanced Scientific Computing.


           Job information
           ---------------

    hostname        = lxbk1137
    program         = /lustre/ukt/milias/work/software/nwchem/nwchem-7.2.0_gnu_openmpi_openblas/bin/LINUX64/nwchem
    date            = Sat Jul 29 12:58:12 2023

    compiled        = Sun_Jul_02_11:55:06_2023
    source          = /lustre/ukt/milias/work/software/nwchem/nwchem-7.2.0_gnu_openmpi_openblas
    nwchem branch   = 7.2.0
    nwchem revision = v7.2.0-beta1-192-gd0d141fdfb
    ga revision     = 5.8.0
    use scalapack   = F
    input           = /lustre/ukt/milias/work/projects/open-collection/theoretical_chemistry/projects/adsorbate_on_surface/on_quartz/quartz/nwchem/Quartz-G_molecular_slab_153atoms/ecp/Q-G.ecp_b3lyp.nw
    prefix          = molecule.
    data base       = ./molecule.db
    status          = startup
    nproc           =      140
    time left       =     -1s



           Memory information
           ------------------

    heap     =   26214398 doubles =    200.0 Mbytes
    stack    =   26214395 doubles =    200.0 Mbytes
    global   =   52428800 doubles =    400.0 Mbytes (distinct from heap & stack)
    total    =  104857593 doubles =    800.0 Mbytes
    verify   = yes
    hardfail = no 


           Directory information
           ---------------------

  0 permanent = .
  0 scratch   = .




                                NWChem Input Module
                                -------------------


                                      Q-G ecp
                                      -------

 Scaling coordinates for geometry "geometry" by  1.889725989
 (inverse scale =  0.529177249)


          ------
          auto-z
          ------
  no constraints, skipping    0.0000000000000000     
  no constraints, skipping    0.0000000000000000     


                             Geometry "geometry" -> ""
                             -------------------------

 Output coordinates in angstroms (scale by  1.889725989 to convert to a.u.)

  No.       Tag          Charge          X              Y              Z
 ---- ---------------- ---------- -------------- -------------- --------------
    1 O                    8.0000     5.49243016    -1.68992057    -2.06522538
    2 H                    1.0000    -0.40326490     6.35069652    -2.26048276
    3 H                    1.0000     3.04531661   -10.24434531    -2.17200258
    4 Si                  14.0000    -0.96817180    10.47534742    -1.41574155
    5 Si                  14.0000     2.29097436     6.82565049    -1.41912506
    6 Si                  14.0000     5.55111499     3.17697452    -1.42023246
    7 H                    1.0000    -0.20603384    -6.59205418    -2.16086093
    8 Si                  14.0000    -2.49558335     5.82877326    -1.36256719
    9 Si                  14.0000     0.76227410     2.17820719    -1.36578809
   10 Si                  14.0000     4.02489440    -1.47081526    -1.36760996
   11 H                    1.0000    -3.46649062    -2.95007241    -2.16040177
   12 Si                  14.0000    -4.02989470     1.18247246    -1.31099063
   13 Si                  14.0000    -0.76787487    -2.46724456    -1.31261933
   14 Si                  14.0000     2.49523093    -6.11915977    -1.31485246
   15 H                    1.0000     0.92153618     8.29647409    -2.41350255
   16 Si                  14.0000    -5.55839287    -3.46850909    -1.25859418
   17 Si                  14.0000    -2.29737932    -7.11609698    -1.26095909
   18 Si                  14.0000     0.95730446   -10.76629401    -1.26284285
   19 O                    8.0000    -2.56351249     0.96459952    -2.01134761
   20 O                    8.0000     1.42269189     7.26002686     2.74392880
   21 O                    8.0000     4.68338540     3.61050637     2.74125665
   22 O                    8.0000    -3.47998422    -6.61328015    -2.31573238
   23 O                    8.0000     0.69818820    -2.68523950    -2.01341716
   24 O                    8.0000    -0.10777905     2.61336970     2.79701210
   25 O                    8.0000     3.15339179    -1.03686781     2.79476448
   26 O                    8.0000    -0.22860003   -10.26360267    -2.31404371
   27 O                    8.0000     3.96344712    -6.33932392    -2.01049983
   28 O                    8.0000    -1.63885492    -2.03426101     2.84823807
   29 O                    8.0000     1.62196314    -5.68511824     2.84570658
   30 H                    1.0000    -1.94240449     1.70809631    -2.21805532
   31 H                    1.0000    -6.92341375    -1.99829214    -2.26063317
   32 O                    8.0000     1.31441415    -5.61643851    -2.37167379
   33 O                    8.0000     2.22845893     1.96021632    -2.06637623
   34 O                    8.0000    -3.11112799     9.20913516     1.04949420
   35 O                    8.0000    -4.38822521    -0.34952069    -0.83461277
   36 Si                  14.0000    -3.07965103    -2.57613273     2.29986915
   37 Si                  14.0000     0.18057167    -6.22597271     2.29796805
   38 O                    8.0000     0.15010323     5.56025815     1.04587262
   39 O                    8.0000     3.41050986     1.91065341     1.04342327
   40 H                    1.0000     4.58786652    -5.59751878    -2.21305907
   41 H                    1.0000     0.53484951    10.62750365    -3.19323287
   42 Si                  14.0000    -1.94840649     8.25516013     0.41412000
   43 O                    8.0000    -5.62909041    -2.47957590     0.05532083
   44 O                    8.0000    -2.36751624    -6.12798018     0.05340390
   45 O                    8.0000    -4.09081350    -3.69119112    -1.95470795
   46 Si                  14.0000     1.31224475     4.60517170     0.41113033
   47 O                    8.0000    -0.59041370    -4.93330875     1.65334642
   48 H                    1.0000    -3.66508061    -5.64646142    -2.25862612
   49 H                    1.0000     3.48951297    -8.83498051     1.22530180
   50 Si                  14.0000     4.57325533     0.95593722     0.40925860
   51 O                    8.0000    -2.91095629    -3.73381911     1.14951545
   52 O                    8.0000    -0.82978332    -7.33448746    -1.95864869
   53 O                    8.0000     1.93271696     5.29404645    -0.94140182
   54 O                    8.0000     2.13683291    -7.65043229    -0.83648378
   55 O                    8.0000    -4.64071169     4.56283256     1.10095929
   56 O                    8.0000     2.42225619   -10.98619097    -1.96513905
   57 O                    8.0000     5.19367944     1.64496429    -0.94342424
   58 H                    1.0000    -2.33424720    11.94829419    -2.41155399
   59 O                    8.0000    -1.37925620     0.91372618     1.09801226
   60 H                    1.0000     6.11653019    -0.94846759    -2.26898486
   61 H                    1.0000    -2.13583138    -0.99493268    -2.30618093
   62 O                    8.0000    -5.91984539    -4.99923829    -0.78080983
   63 O                    8.0000     1.88111041    -2.73506613     1.09449188
   64 H                    1.0000    -3.24984760    -3.62662598     4.17602746
   65 O                    8.0000    -2.85621350     4.29733412    -0.88605416
   66 O                    8.0000    -2.65487513    -8.64754716    -0.78218179
   67 H                    1.0000     0.01166992    -7.27712518     4.17380159
   68 O                    8.0000     0.60050839   -12.29774224    -0.78380643
   69 H                    1.0000     6.55332574     0.46167765     1.11739452
   70 H                    1.0000     5.02234801    -4.18644386     1.17184280
   71 H                    1.0000    -6.03972686    -0.00749685     2.09960453
   72 H                    1.0000     2.06510840     7.23806739     2.03089388
   73 H                    1.0000     5.32557005     3.58867127     2.02800907
   74 O                    8.0000    -2.56775199     6.81511956    -0.04701796
   75 O                    8.0000     0.69299377     3.16510116    -0.05040784
   76 H                    1.0000     0.53502541     2.59130834     2.08433005
   77 H                    1.0000     3.79608750    -1.05892150     2.08198411
   78 O                    8.0000     2.66755058    -8.58344655     1.65274594
   79 O                    8.0000     0.34858857    -7.38286876     1.14647454
   80 O                    8.0000    -6.73926490    -2.96532939    -2.31538587
   81 O                    8.0000     1.10720780     7.32971111    -2.47209885
   82 H                    1.0000    -3.85912020     7.30075079    -2.36387736
   83 O                    8.0000     3.95411135    -0.48396760    -0.05230830
   84 O                    8.0000    -0.81990955     6.05436353     3.45998604
   85 O                    8.0000     2.44182034     2.40423291     3.45836421
   86 O                    8.0000     4.36756571     3.68190725    -2.47282321
   87 H                    1.0000    -0.99633838    -2.05616877     2.13529169
   88 O                    8.0000    -2.35053793     1.40688023     3.51176089
   89 O                    8.0000     0.91104389    -2.24371116     3.50967085
   90 H                    1.0000     2.85157895     2.70258985    -2.27050216
   91 O                    8.0000    -0.78801308     8.01127584     1.54909096
   92 O                    8.0000    -3.88109391    -3.24129318     3.56394355
   93 O                    8.0000    -0.61998994    -6.89160600     3.56226191
   94 O                    8.0000    -3.67414116     6.33396150    -2.42081387
   95 O                    8.0000     2.47097907     4.36096564     1.54787829
   96 H                    1.0000     2.26403856    -5.70704176     2.13236337
   97 O                    8.0000    -3.85057130    -1.28402332     1.65380682
   98 O                    8.0000    -0.42245465     2.67916685    -2.41923706
   99 H                    1.0000     1.32158715    -1.94283766    -2.21669972
  100 H                    1.0000    -2.97887787     9.28681875     1.99716248
  101 O                    8.0000     5.73190880     0.71266501     1.54620631
  102 H                    1.0000    -0.41351633    -9.29671855    -2.25730252
  103 O                    8.0000    -4.09838272     2.16889499     0.00467801
  104 O                    8.0000    -5.21377621     1.68727921    -2.36349040
  105 H                    1.0000    -4.50868146     4.64068582     2.04864430
  106 Si                  14.0000    -5.00914647    -1.03995623     0.51711961
  107 O                    8.0000    -0.83549126    -1.48117147     0.00330937
  108 O                    8.0000     0.40677619     0.64635609    -0.88728665
  109 O                    8.0000    -2.31870479     3.36409699     1.60182593
  110 Si                  14.0000    -1.74803049    -4.68866660     0.51572766
  111 H                    1.0000     4.18165799     4.64860973    -2.41370293
  112 H                    1.0000     1.54219581    -2.62909097     4.12182251
  113 H                    1.0000    -0.18876275     5.66921667     4.07228958
  114 Si                  14.0000     1.51113709    -8.33896544     0.51390256
  115 O                    8.0000    -1.12384271    -3.99929663    -0.83491775
  116 O                    8.0000    -2.14848491    10.98148402    -2.47128532
  117 O                    8.0000     2.84289734    -0.96787072    -2.42304915
  118 H                    1.0000     1.12942036    -4.64954234    -2.31563800
  119 O                    8.0000     2.42414003    -5.13032279    -0.00108309
  120 H                    1.0000    -5.39951954     2.65381772    -2.30484378
  121 H                    1.0000     3.78982220     6.97993011    -3.19995434
  122 Si                  14.0000    -3.47809889     3.60840837     0.46609318
  123 H                    1.0000    -0.60834112     3.64592949    -2.36289235
  124 H                    1.0000     7.04994908     3.33253914    -3.20096152
  125 O                    8.0000    -0.92259354    11.58315976     0.04013428
  126 Si                  14.0000    -0.21628471    -0.04140356     0.46470038
  127 O                    8.0000     0.94183348    -0.28532962     1.60179990
  128 O                    8.0000     0.66026209    10.49755235    -2.25037321
  129 O                    8.0000     2.33890720     7.93385157     0.03637926
  130 Si                  14.0000     3.04358264    -3.69091123     0.46130489
  131 H                    1.0000     2.65773222    -0.00104517    -2.36671349
  132 O                    8.0000    -6.17173350    -0.08538559     1.15191914
  133 O                    8.0000    -1.02639791     5.60832997    -2.05633539
  134 O                    8.0000     3.91746041     6.84912386    -2.25751166
  135 O                    8.0000     4.20052026    -3.93505211     1.59962934
  136 O                    8.0000    -1.32817242     8.94387418    -0.93866400
  137 O                    8.0000     5.59869975     4.28408169     0.03611551
  138 O                    8.0000     7.17762000     3.20153134    -2.25855126
  139 Si                  14.0000    -0.01833047     6.71865627     2.19565137
  140 Si                  14.0000    -1.54845148     2.07177137     2.24807379
  141 H                    1.0000    -0.07214927    11.50143273     0.47793017
  142 H                    1.0000     3.18999068     7.85210415     0.47292742
  143 Si                  14.0000     3.24224537     3.06890436     2.19343086
  144 Si                  14.0000     1.71263256    -1.57826578     2.24600849
  145 H                    1.0000     6.44974261     4.20213512     0.47270551
  146 O                    8.0000     0.89059775    -9.77798823     0.05162337
  147 O                    8.0000    -1.95212651    -1.96203672    -2.36441352
  148 H                    1.0000     3.07353664     2.01889516     4.06995993
  149 O                    8.0000     3.66786844    -3.00265677    -0.89008770
  150 H                    1.0000    -1.71962523     1.02166363     4.12426178
  151 H                    1.0000     0.61934938   -12.34575627     0.17480698
  152 H                    1.0000    -2.63621906    -8.69570629     0.17642796
  153 H                    1.0000    -5.90215028    -5.04784472     0.17779557

      Atomic Mass 
      ----------- 

      O                 15.994910
      H                  1.007825
      Si                27.976930


 Effective nuclear repulsion energy (a.u.)   44625.5552783854

            Nuclear Dipole moment (a.u.) 
            ----------------------------
        X                 Y               Z
 ---------------- ---------------- ----------------
     0.0000000000     0.0000000000    -0.0000000000



                                Z-matrix (autoz)
                                -------- 

 Units are Angstrom for bonds and degrees for angles

      Type          Name      I     J     K     L     M      Value
      ----------- --------  ----- ----- ----- ----- ----- ----------
    1 Stretch                  1    10                       1.63961
    2 Stretch                  1    60                       0.99034
    3 Stretch                  2   133                       0.99049
    4 Stretch                  3    56                       0.99062
    5 Stretch                  4   116                       1.66237
    6 Stretch                  4   125                       1.83000
    7 Stretch                  4   128                       1.83000
    8 Stretch                  4   136                       1.64396
    9 Stretch                  5    53                       1.64389
   10 Stretch                  5    81                       1.66257
   11 Stretch                  5   129                       1.83000
   12 Stretch                  5   134                       1.83000
   13 Stretch                  6    57                       1.64383
   14 Stretch                  6    86                       1.66244
   15 Stretch                  6   137                       1.83000
   16 Stretch                  6   138                       1.83000
   17 Stretch                  7    52                       0.99054
   18 Stretch                  8    65                       1.64391
   19 Stretch                  8    74                       1.64583
   20 Stretch                  8    94                       1.66256
   21 Stretch                  8   133                       1.63964
   22 Stretch                  9    33                       1.63952
   23 Stretch                  9    75                       1.64590
   24 Stretch                  9    98                       1.66262
   25 Stretch                  9   108                       1.64375
   26 Stretch                 10    83                       1.64587
   27 Stretch                 10   117                       1.66253
   28 Stretch                 10   149                       1.64379
   29 Stretch                 11    45                       0.99063
   30 Stretch                 12    19                       1.63959
   31 Stretch                 12    35                       1.64388
   32 Stretch                 12   103                       1.64581
   33 Stretch                 12   104                       1.66258
   34 Stretch                 13    23                       1.63951
   35 Stretch                 13   107                       1.64578
   36 Stretch                 13   115                       1.64381
   37 Stretch                 13   147                       1.66252
   38 Stretch                 14    27                       1.63953
   39 Stretch                 14    32                       1.66251
   40 Stretch                 14    54                       1.64380
   41 Stretch                 14   119                       1.64586
   42 Stretch                 15    81                       0.98617
   43 Stretch                 16    43                       1.64601
   44 Stretch                 16    45                       1.63950
   45 Stretch                 16    62                       1.64379
   46 Stretch                 16    80                       1.66267
   47 Stretch                 17    22                       1.66251
   48 Stretch                 17    44                       1.64586
   49 Stretch                 17    52                       1.63960
   50 Stretch                 17    66                       1.64389
   51 Stretch                 18    26                       1.66256
   52 Stretch                 18    56                       1.63941
   53 Stretch                 18    68                       1.64381
   54 Stretch                 18   146                       1.64591
   55 Stretch                 19    30                       0.99060
   56 Stretch                 20    72                       0.96000
   57 Stretch                 20   139                       1.63409
   58 Stretch                 21    73                       0.96000
   59 Stretch                 21   143                       1.63411
   60 Stretch                 22    48                       0.98603
   61 Stretch                 23    99                       0.99051
   62 Stretch                 24    76                       0.96000
   63 Stretch                 24   140                       1.63407
   64 Stretch                 25    77                       0.96000
   65 Stretch                 25   144                       1.63402
   66 Stretch                 26   102                       0.98604
   67 Stretch                 27    40                       0.99056
   68 Stretch                 28    36                       1.63408
   69 Stretch                 28    87                       0.96000
   70 Stretch                 29    37                       1.63406
   71 Stretch                 29    96                       0.96000
   72 Stretch                 31    80                       0.98594
   73 Stretch                 32   118                       0.98603
   74 Stretch                 33    90                       0.99049
   75 Stretch                 34    42                       1.63269
   76 Stretch                 34   100                       0.96000
   77 Stretch                 35   106                       1.63995
   78 Stretch                 36    51                       1.64073
   79 Stretch                 36    92                       1.63787
   80 Stretch                 36    97                       1.63746
   81 Stretch                 37    47                       1.63736
   82 Stretch                 37    79                       1.64091
   83 Stretch                 37    93                       1.63781
   84 Stretch                 38    46                       1.63269
   85 Stretch                 38   139                       1.64081
   86 Stretch                 39    50                       1.63267
   87 Stretch                 39   143                       1.64085
   88 Stretch                 41   128                       0.96000
   89 Stretch                 42    74                       1.63400
   90 Stretch                 42    91                       1.64139
   91 Stretch                 42   136                       1.63983
   92 Stretch                 43   106                       1.63404
   93 Stretch                 44   110                       1.63375
   94 Stretch                 46    53                       1.63978
   95 Stretch                 46    75                       1.63410
   96 Stretch                 46    95                       1.64149
   97 Stretch                 47   110                       1.64137
   98 Stretch                 49    78                       0.96000
   99 Stretch                 50    57                       1.63995
  100 Stretch                 50    83                       1.63392
  101 Stretch                 50   101                       1.64144
  102 Stretch                 51   110                       1.63273
  103 Stretch                 54   114                       1.63985
  104 Stretch                 55   105                       0.96000
  105 Stretch                 55   122                       1.63268
  106 Stretch                 58   116                       0.98630
  107 Stretch                 59   126                       1.63275
  108 Stretch                 59   140                       1.64083
  109 Stretch                 61   147                       0.98612
  110 Stretch                 62   153                       0.96000
  111 Stretch                 63   130                       1.63276
  112 Stretch                 63   144                       1.64090
  113 Stretch                 64    92                       0.96000
  114 Stretch                 65   122                       1.64002
  115 Stretch                 66   152                       0.96000
  116 Stretch                 67    93                       0.96000
  117 Stretch                 68   151                       0.96000
  118 Stretch                 69   101                       0.96000
  119 Stretch                 70   135                       0.96000
  120 Stretch                 71   132                       0.96000
  121 Stretch                 78   114                       1.64135
  122 Stretch                 79   114                       1.63272
  123 Stretch                 82    94                       0.98597
  124 Stretch                 84   113                       0.96000
  125 Stretch                 84   139                       1.63779
  126 Stretch                 85   143                       1.63784
  127 Stretch                 85   148                       0.96000
  128 Stretch                 86   111                       0.98619
  129 Stretch                 88   140                       1.63778
  130 Stretch                 88   150                       0.96000
  131 Stretch                 89   112                       0.96000
  132 Stretch                 89   144                       1.63774
  133 Stretch                 91   139                       1.63747
  134 Stretch                 95   143                       1.63738
  135 Stretch                 97   106                       1.64132
  136 Stretch                 98   123                       0.98608
  137 Stretch                103   122                       1.63397
  138 Stretch                104   120                       0.98597
  139 Stretch                106   132                       1.63272
  140 Stretch                107   126                       1.63378
  141 Stretch                108   126                       1.63984
  142 Stretch                109   122                       1.64127
  143 Stretch                109   140                       1.63739
  144 Stretch                110   115                       1.63984
  145 Stretch                114   146                       1.63388
  146 Stretch                117   131                       0.98601
  147 Stretch                119   130                       1.63384
  148 Stretch                121   134                       0.96000
  149 Stretch                124   138                       0.96000
  150 Stretch                125   141                       0.96000
  151 Stretch                126   127                       1.64126
  152 Stretch                127   144                       1.63732
  153 Stretch                129   142                       0.96000
  154 Stretch                130   135                       1.64131
  155 Stretch                130   149                       1.64003
  156 Stretch                137   145                       0.96000
  157 Bend                     1    10    83               117.29916
  158 Bend                     1    10   117               113.99540
  159 Bend                     1    10   149               101.15547
  160 Bend                     2   133     8               123.37758
  161 Bend                     3    56    18               123.43822
  162 Bend                     4   116    58               113.18619
  163 Bend                     4   125   141               109.47122
  164 Bend                     4   128    41               109.47122
  165 Bend                     4   136    42               135.51881
  166 Bend                     5    53    46               135.52597
  167 Bend                     5    81    15               113.18095
  168 Bend                     5   129   142               109.47122
  169 Bend                     5   134   121               109.47122
  170 Bend                     6    57    50               135.48649
  171 Bend                     6    86   111               113.20237
  172 Bend                     6   137   145               109.47122
  173 Bend                     6   138   124               109.47122
  174 Bend                     7    52    17               123.41373
  175 Bend                     8    65   122               135.52079
  176 Bend                     8    74    42               137.48681
  177 Bend                     8    94    82               113.21531
  178 Bend                     9    33    90               123.43574
  179 Bend                     9    75    46               137.57684
  180 Bend                     9    98   123               113.17410
  181 Bend                     9   108   126               135.48210
  182 Bend                    10     1    60               123.47282
  183 Bend                    10    83    50               137.54833
  184 Bend                    10   117   131               113.19571
  185 Bend                    10   149   130               135.49042
  186 Bend                    11    45    16               123.41444
  187 Bend                    12    19    30               123.37824
  188 Bend                    12    35   106               135.54062
  189 Bend                    12   103   122               137.55878
  190 Bend                    12   104   120               113.21210
  191 Bend                    13    23    99               123.42580
  192 Bend                    13   107   126               137.58175
  193 Bend                    13   115   110               135.52796
  194 Bend                    13   147    61               113.16388
  195 Bend                    14    27    40               123.41548
  196 Bend                    14    32   118               113.18186
  197 Bend                    14    54   114               135.55859
  198 Bend                    14   119   130               137.63252
  199 Bend                    16    43   106               137.61370
  200 Bend                    16    62   153               109.47122
  201 Bend                    16    80    31               113.21543
  202 Bend                    17    22    48               113.16241
  203 Bend                    17    44   110               137.62465
  204 Bend                    17    66   152               109.47122
  205 Bend                    18    26   102               113.19553
  206 Bend                    18    68   151               109.47122
  207 Bend                    18   146   114               137.68173
  208 Bend                    19    12    35               101.23874
  209 Bend                    19    12   103               117.27938
  210 Bend                    19    12   104               114.00326
  211 Bend                    20   139    38               112.23993
  212 Bend                    20   139    84               107.87617
  213 Bend                    20   139    91               106.58663
  214 Bend                    21   143    39               112.23938
  215 Bend                    21   143    85               107.85351
  216 Bend                    21   143    95               106.62153
  217 Bend                    22    17    44               107.14387
  218 Bend                    22    17    52               114.01814
  219 Bend                    22    17    66               108.17044
  220 Bend                    23    13   107               117.26972
  221 Bend                    23    13   115               101.18259
  222 Bend                    23    13   147               114.01338
  223 Bend                    24   140    59               112.23853
  224 Bend                    24   140    88               107.88642
  225 Bend                    24   140   109               106.60270
  226 Bend                    25   144    63               112.25449
  227 Bend                    25   144    89               107.88210
  228 Bend                    25   144   127               106.59374
  229 Bend                    26    18    56               114.02243
  230 Bend                    26    18    68               108.12707
  231 Bend                    26    18   146               107.12696
  232 Bend                    27    14    32               114.01259
  233 Bend                    27    14    54               101.16483
  234 Bend                    27    14   119               117.26106
  235 Bend                    28    36    51               112.24741
  236 Bend                    28    36    92               107.88542
  237 Bend                    28    36    97               106.60971
  238 Bend                    29    37    47               106.61928
  239 Bend                    29    37    79               112.22613
  240 Bend                    29    37    93               107.87439
  241 Bend                    32    14    54               108.16895
  242 Bend                    32    14   119               107.16131
  243 Bend                    33     9    75               117.31407
  244 Bend                    33     9    98               113.98798
  245 Bend                    33     9   108               101.17992
  246 Bend                    34    42    74               110.78322
  247 Bend                    34    42    91               108.73470
  248 Bend                    34    42   136               110.18146
  249 Bend                    35    12   103               108.53175
  250 Bend                    35    12   104               108.13143
  251 Bend                    35   106    43               106.35700
  252 Bend                    35   106    97               111.47996
  253 Bend                    35   106   132               110.11615
  254 Bend                    36    28    87               109.47122
  255 Bend                    36    51   110               139.29087
  256 Bend                    36    92    64               109.47122
  257 Bend                    36    97   106               136.29586
  258 Bend                    37    29    96               109.47122
  259 Bend                    37    47   110               136.27214
  260 Bend                    37    79   114               139.25676
  261 Bend                    37    93    67               109.47122
  262 Bend                    38    46    53               110.13624
  263 Bend                    38    46    75               110.82931
  264 Bend                    38    46    95               108.67864
  265 Bend                    38   139    84               107.74869
  266 Bend                    38   139    91               109.20036
  267 Bend                    39    50    57               110.12834
  268 Bend                    39    50    83               110.80451
  269 Bend                    39    50   101               108.68291
  270 Bend                    39   143    85               107.75455
  271 Bend                    39   143    95               109.20803
  272 Bend                    42    34   100               109.47122
  273 Bend                    42    91   139               136.27142
  274 Bend                    43    16    45               117.32100
  275 Bend                    43    16    62               108.54319
  276 Bend                    43    16    80               107.15954
  277 Bend                    43   106    97               109.42171
  278 Bend                    43   106   132               110.78222
  279 Bend                    44    17    52               117.25353
  280 Bend                    44    17    66               108.50870
  281 Bend                    44   110    47               109.40543
  282 Bend                    44   110    51               110.79279
  283 Bend                    44   110   115               106.35635
  284 Bend                    45    16    62               101.17239
  285 Bend                    45    16    80               114.01581
  286 Bend                    46    38   139               139.33101
  287 Bend                    46    95   143               136.29692
  288 Bend                    47    37    79               109.18096
  289 Bend                    47    37    93               113.24156
  290 Bend                    47   110    51               108.69078
  291 Bend                    47   110   115               111.41140
  292 Bend                    49    78   114               109.47122
  293 Bend                    50    39   143               139.29105
  294 Bend                    50   101    69               109.47122
  295 Bend                    51    36    92               107.75039
  296 Bend                    51    36    97               109.18113
  297 Bend                    51   110   115               110.18069
  298 Bend                    52    17    66               101.21556
  299 Bend                    53     5    81               108.14090
  300 Bend                    53     5   129               109.80277
  301 Bend                    53     5   134               109.80277
  302 Bend                    53    46    75               106.29878
  303 Bend                    53    46    95               111.50565
  304 Bend                    54    14   119               108.53973
  305 Bend                    54   114    78               111.41274
  306 Bend                    54   114    79               110.17272
  307 Bend                    54   114   146               106.36312
  308 Bend                    55   122    65               110.18488
  309 Bend                    55   122   103               110.76224
  310 Bend                    55   122   109               108.72092
  311 Bend                    56    18    68               101.17651
  312 Bend                    56    18   146               117.31458
  313 Bend                    57     6    86               108.17504
  314 Bend                    57     6   137               109.79429
  315 Bend                    57     6   138               109.79429
  316 Bend                    57    50    83               106.29666
  317 Bend                    57    50   101               111.50275
  318 Bend                    59   126   107               110.79969
  319 Bend                    59   126   108               110.18663
  320 Bend                    59   126   127               108.71208
  321 Bend                    59   140    88               107.74514
  322 Bend                    59   140   109               109.20250
  323 Bend                    62    16    80               108.08275
  324 Bend                    63   130   119               110.82855
  325 Bend                    63   130   135               108.66158
  326 Bend                    63   130   149               110.17503
  327 Bend                    63   144    89               107.77474
  328 Bend                    63   144   127               109.20347
  329 Bend                    65     8    74               108.48059
  330 Bend                    65     8    94               108.18391
  331 Bend                    65     8   133               101.18451
  332 Bend                    65   122   103               106.33226
  333 Bend                    65   122   109               111.41910
  334 Bend                    68    18   146               108.53513
  335 Bend                    70   135   130               109.47122
  336 Bend                    71   132   106               109.47122
  337 Bend                    72    20   139               109.47122
  338 Bend                    73    21   143               109.47122
  339 Bend                    74     8    94               107.19315
  340 Bend                    74     8   133               117.26302
  341 Bend                    74    42    91               109.39988
  342 Bend                    74    42   136               106.30121
  343 Bend                    75     9    98               107.20018
  344 Bend                    75     9   108               108.48401
  345 Bend                    75    46    95               109.38976
  346 Bend                    76    24   140               109.47122
  347 Bend                    77    25   144               109.47122
  348 Bend                    78   114    79               108.66689
  349 Bend                    78   114   146               109.43334
  350 Bend                    79    37    93               107.77120
  351 Bend                    79   114   146               110.78975
  352 Bend                    81     5   129               109.80277
  353 Bend                    81     5   134               109.80277
  354 Bend                    83    10   117               107.17970
  355 Bend                    83    10   149               108.49734
  356 Bend                    83    50   101               109.42292
  357 Bend                    84   139    91               113.26271
  358 Bend                    85   143    95               113.23662
  359 Bend                    86     6   137               109.79429
  360 Bend                    86     6   138               109.79429
  361 Bend                    88   140   109               113.23894
  362 Bend                    89   144   127               113.20504
  363 Bend                    91    42   136               111.43478
  364 Bend                    92    36    97               113.24070
  365 Bend                    94     8   133               113.99874
  366 Bend                    97   106   132               108.68129
  367 Bend                    98     9   108               108.12753
  368 Bend                   103    12   104               107.12468
  369 Bend                   103   122   109               109.41638
  370 Bend                   105    55   122               109.47122
  371 Bend                   107    13   115               108.49127
  372 Bend                   107    13   147               107.12864
  373 Bend                   107   126   108               106.30618
  374 Bend                   107   126   127               109.39751
  375 Bend                   108   126   127               111.43420
  376 Bend                   112    89   144               109.47122
  377 Bend                   113    84   139               109.47122
  378 Bend                   115    13   147               108.22931
  379 Bend                   116     4   125               109.78686
  380 Bend                   116     4   128               109.78686
  381 Bend                   116     4   136               108.20493
  382 Bend                   117    10   149               108.17480
  383 Bend                   119   130   135               109.41931
  384 Bend                   119   130   149               106.31040
  385 Bend                   122   109   140               136.29457
  386 Bend                   125     4   128               109.47122
  387 Bend                   125     4   136               109.78686
  388 Bend                   126    59   140               139.30356
  389 Bend                   126   127   144               136.23152
  390 Bend                   128     4   136               109.78686
  391 Bend                   129     5   134               109.47122
  392 Bend                   130    63   144               139.28371
  393 Bend                   135   130   149               111.44397
  394 Bend                   137     6   138               109.47122
  395 Bend                   140    88   150               109.47122
  396 Bend                   143    85   148               109.47122
  397 Torsion                  1    10    83    50          42.86706
  398 Torsion                  1    10   117   131        -101.21028
  399 Torsion                  1    10   149   130         136.30048
  400 Torsion                  2   133     8    65        -164.46014
  401 Torsion                  2   133     8    74         -46.72454
  402 Torsion                  2   133     8    94          79.67573
  403 Torsion                  3    56    18    26          79.86306
  404 Torsion                  3    56    18    68        -164.33418
  405 Torsion                  3    56    18   146         -46.51151
  406 Torsion                  4   136    42    34          37.52510
  407 Torsion                  4   136    42    74         157.61565
  408 Torsion                  4   136    42    91         -83.26709
  409 Torsion                  5    53    46    38          37.39573
  410 Torsion                  5    53    46    75         157.51521
  411 Torsion                  5    53    46    95         -83.34200
  412 Torsion                  6    57    50    39          37.41164
  413 Torsion                  6    57    50    83         157.49577
  414 Torsion                  6    57    50   101         -83.32424
  415 Torsion                  7    52    17    22          79.99866
  416 Torsion                  7    52    17    44         -46.33951
  417 Torsion                  7    52    17    66        -164.12627
  418 Torsion                  8    65   122    55          37.48221
  419 Torsion                  8    65   122   103         157.56795
  420 Torsion                  8    65   122   109         -83.28453
  421 Torsion                  8    74    42    34         133.00293
  422 Torsion                  8    74    42    91        -107.13771
  423 Torsion                  8    74    42   136          13.30336
  424 Torsion                  9    75    46    38         132.86670
  425 Torsion                  9    75    46    53          13.19755
  426 Torsion                  9    75    46    95        -107.32111
  427 Torsion                  9   108   126    59          37.18769
  428 Torsion                  9   108   126   107         157.30381
  429 Torsion                  9   108   126   127         -83.57907
  430 Torsion                 10    83    50    39         132.90906
  431 Torsion                 10    83    50    57          13.26442
  432 Torsion                 10    83    50   101        -107.26770
  433 Torsion                 10   149   130    63          37.18891
  434 Torsion                 10   149   130   119         157.33577
  435 Torsion                 10   149   130   135         -83.51276
  436 Torsion                 11    45    16    43         -46.61312
  437 Torsion                 11    45    16    62        -164.44605
  438 Torsion                 11    45    16    80          79.80870
  439 Torsion                 12    35   106    43         157.48908
  440 Torsion                 12    35   106    97         -83.30796
  441 Torsion                 12    35   106   132          37.40259
  442 Torsion                 12   103   122    55         132.86289
  443 Torsion                 12   103   122    65          13.15206
  444 Torsion                 12   103   122   109        -107.29736
  445 Torsion                 13   107   126    59         132.71470
  446 Torsion                 13   107   126   108          12.99677
  447 Torsion                 13   107   126   127        -107.44521
  448 Torsion                 13   115   110    44         157.27297
  449 Torsion                 13   115   110    47         -83.58226
  450 Torsion                 13   115   110    51          37.13856
  451 Torsion                 14    54   114    78         -83.51715
  452 Torsion                 14    54   114    79          37.16904
  453 Torsion                 14    54   114   146         157.29943
  454 Torsion                 14   119   130    63         132.97069
  455 Torsion                 14   119   130   135        -107.21979
  456 Torsion                 14   119   130   149          13.24820
  457 Torsion                 15    81     5    53         146.98280
  458 Torsion                 15    81     5   129          27.18856
  459 Torsion                 15    81     5   134         -93.22295
  460 Torsion                 16    43   106    35          13.38141
  461 Torsion                 16    43   106    97        -107.15797
  462 Torsion                 16    43   106   132         133.03547
  463 Torsion                 17    44   110    47        -107.24976
  464 Torsion                 17    44   110    51         132.93576
  465 Torsion                 17    44   110   115          13.19848
  466 Torsion                 18   146   114    54          13.04456
  467 Torsion                 18   146   114    78        -107.42450
  468 Torsion                 18   146   114    79         132.77464
  469 Torsion                 19    12    35   106         136.17919
  470 Torsion                 19    12   103   122          42.80283
  471 Torsion                 19    12   104   120        -101.25237
  472 Torsion                 20   139    38    46          11.76655
  473 Torsion                 20   139    84   113         -31.73019
  474 Torsion                 20   139    91    42         154.90195
  475 Torsion                 21   143    39    50          11.79808
  476 Torsion                 21   143    85   148         -31.75569
  477 Torsion                 21   143    95    46         154.71034
  478 Torsion                 22    17    44   110         -86.88939
  479 Torsion                 22    17    66   152        -128.57621
  480 Torsion                 23    13   107   126          42.89198
  481 Torsion                 23    13   115   110         136.45448
  482 Torsion                 23    13   147    61        -101.13226
  483 Torsion                 24   140    59   126          11.83021
  484 Torsion                 24   140    88   150         -31.73061
  485 Torsion                 24   140   109   122         154.84741
  486 Torsion                 25   144    63   130          11.96382
  487 Torsion                 25   144    89   112         -31.72668
  488 Torsion                 25   144   127   126         154.70332
  489 Torsion                 26    18    68   151        -128.41808
  490 Torsion                 26    18   146   114         -86.94852
  491 Torsion                 27    14    32   118        -101.23569
  492 Torsion                 27    14    54   114         136.27967
  493 Torsion                 27    14   119   130          42.79631
  494 Torsion                 28    36    51   110          11.84587
  495 Torsion                 28    36    92    64         -31.74668
  496 Torsion                 28    36    97   106         154.74823
  497 Torsion                 29    37    47   110         154.61939
  498 Torsion                 29    37    79   114          11.99924
  499 Torsion                 29    37    93    67         -31.71389
  500 Torsion                 30    19    12    35        -164.53374
  501 Torsion                 30    19    12   103         -46.68988
  502 Torsion                 30    19    12   104          79.62995
  503 Torsion                 31    80    16    43          30.32922
  504 Torsion                 31    80    16    45        -101.23509
  505 Torsion                 31    80    16    62         147.13383
  506 Torsion                 32    14    27    40          79.96838
  507 Torsion                 32    14    54   114        -103.63255
  508 Torsion                 32    14   119   130         -86.86434
  509 Torsion                 33     9    75    46          42.80456
  510 Torsion                 33     9    98   123        -101.21564
  511 Torsion                 33     9   108   126         136.39561
  512 Torsion                 34    42    91   139         128.80451
  513 Torsion                 35    12   103   122         156.64015
  514 Torsion                 35    12   104   120         147.01286
  515 Torsion                 35   106    97    36        -109.48466
  516 Torsion                 35   106   132    71        -133.80596
  517 Torsion                 36    51   110    44         147.09905
  518 Torsion                 36    51   110    47          26.85767
  519 Torsion                 36    51   110   115         -95.48181
  520 Torsion                 36    97   106    43           7.87952
  521 Torsion                 36    97   106   132         128.96814
  522 Torsion                 37    47   110    44           7.97228
  523 Torsion                 37    47   110    51         129.06974
  524 Torsion                 37    47   110   115        -109.33981
  525 Torsion                 37    79   114    54         -95.58652
  526 Torsion                 37    79   114    78          26.73407
  527 Torsion                 37    79   114   146         146.99278
  528 Torsion                 38    46    95   143         129.02027
  529 Torsion                 38   139    20    72          33.04909
  530 Torsion                 38   139    84   113          89.65542
  531 Torsion                 38   139    91    42          33.44163
  532 Torsion                 39    50   101    69        -158.15033
  533 Torsion                 39   143    21    73          33.04292
  534 Torsion                 39   143    85   148          89.61967
  535 Torsion                 39   143    95    46          33.22574
  536 Torsion                 40    27    14    54        -164.19072
  537 Torsion                 40    27    14   119         -46.39692
  538 Torsion                 41   128     4   116         -11.13779
  539 Torsion                 41   128     4   125        -131.72051
  540 Torsion                 41   128     4   136         107.69677
  541 Torsion                 42    74     8    65         156.71196
  542 Torsion                 42    74     8    94         -86.68275
  543 Torsion                 42    74     8   133          42.98966
  544 Torsion                 42    91   139    84         -86.62931
  545 Torsion                 42   136     4   116        -103.92993
  546 Torsion                 42   136     4   125          15.87432
  547 Torsion                 42   136     4   128         136.26583
  548 Torsion                 43    16    62   153         -12.73418
  549 Torsion                 43   106   132    71         108.82041
  550 Torsion                 44    17    22    48          30.25695
  551 Torsion                 44    17    66   152         -12.66111
  552 Torsion                 45    16    43   106          42.86901
  553 Torsion                 45    16    62   153         111.30154
  554 Torsion                 46    38   139    84        -106.85924
  555 Torsion                 46    38   139    91         129.73420
  556 Torsion                 46    53     5    81        -103.74402
  557 Torsion                 46    53     5   129          16.05023
  558 Torsion                 46    53     5   134         136.46174
  559 Torsion                 46    75     9    98         -86.90170
  560 Torsion                 46    75     9   108         156.55366
  561 Torsion                 46    95   143    85         -86.84100
  562 Torsion                 47    37    29    96         -86.51496
  563 Torsion                 47    37    79   114         129.98641
  564 Torsion                 47    37    93    67        -149.46015
  565 Torsion                 48    22    17    52        -101.20388
  566 Torsion                 48    22    17    66         147.05785
  567 Torsion                 49    78   114    54         -36.55905
  568 Torsion                 49    78   114    79        -158.12442
  569 Torsion                 49    78   114   146          80.77957
  570 Torsion                 50    39   143    85        -106.80327
  571 Torsion                 50    39   143    95         129.81369
  572 Torsion                 50    57     6    86        -103.73025
  573 Torsion                 50    57     6   137          16.06933
  574 Torsion                 50    57     6   138         136.47018
  575 Torsion                 50    83    10   117         -86.81819
  576 Torsion                 50    83    10   149         156.58572
  577 Torsion                 51    36    28    87          33.00441
  578 Torsion                 51    36    92    64          89.65414
  579 Torsion                 51    36    97   106          33.27613
  580 Torsion                 52    17    44   110          42.75665
  581 Torsion                 52    17    66   152         111.30403
  582 Torsion                 53     5   129   142          81.49401
  583 Torsion                 53     5   134   121         107.74354
  584 Torsion                 53    46    38   139         -95.54572
  585 Torsion                 53    46    95   143        -109.39279
  586 Torsion                 54    14    32   118         147.09161
  587 Torsion                 54    14   119   130         156.53442
  588 Torsion                 55   122   109   140         128.89222
  589 Torsion                 56    18    26   102        -101.22381
  590 Torsion                 56    18    68   151         111.49475
  591 Torsion                 56    18   146   114          42.73841
  592 Torsion                 57     6    86   111         146.98961
  593 Torsion                 57     6   137   145          81.46960
  594 Torsion                 57     6   138   124         107.72860
  595 Torsion                 57    50    39   143         -95.57133
  596 Torsion                 57    50   101    69         -36.57225
  597 Torsion                 58   116     4   125          27.07493
  598 Torsion                 58   116     4   128         -93.31658
  599 Torsion                 58   116     4   136         146.87917
  600 Torsion                 59   126   127   144         129.07383
  601 Torsion                 59   140    24    76          33.01685
  602 Torsion                 59   140    88   150          89.65716
  603 Torsion                 59   140   109   122          33.37807
  604 Torsion                 60     1    10    83         -46.48961
  605 Torsion                 60     1    10   117          79.92148
  606 Torsion                 60     1    10   149        -164.24372
  607 Torsion                 61   147    13   107          30.33354
  608 Torsion                 61   147    13   115         147.13617
  609 Torsion                 62    16    43   106         156.65478
  610 Torsion                 63   130   135    70        -158.12809
  611 Torsion                 63   144    25    77          32.95091
  612 Torsion                 63   144    89   112          89.69467
  613 Torsion                 63   144   127   126          33.21960
  614 Torsion                 64    92    36    97        -149.48781
  615 Torsion                 65     8    94    82         147.03388
  616 Torsion                 65   122    55   105        -133.81599
  617 Torsion                 65   122   109   140        -109.48703
  618 Torsion                 66    17    44   110         156.53275
  619 Torsion                 67    93    37    79          89.66710
  620 Torsion                 68    18    26   102         147.10961
  621 Torsion                 68    18   146   114         156.51987
  622 Torsion                 69   101    50    83          80.73209
  623 Torsion                 70   135   130   119          80.74028
  624 Torsion                 70   135   130   149         -36.54347
  625 Torsion                 71   132   106    97         -11.42853
  626 Torsion                 72    20   139    84         151.59972
  627 Torsion                 72    20   139    91         -86.45774
  628 Torsion                 73    21   143    85         151.58591
  629 Torsion                 73    21   143    95         -86.49528
  630 Torsion                 74     8    65   122          11.97178
  631 Torsion                 74     8    94    82          30.23317
  632 Torsion                 74    42    34   100         108.78478
  633 Torsion                 74    42    91   139           7.69505
  634 Torsion                 75     9    33    90         -46.42807
  635 Torsion                 75     9    98   123          30.35207
  636 Torsion                 75     9   108   126          12.39132
  637 Torsion                 75    46    38   139         147.11123
  638 Torsion                 75    46    95   143           7.89517
  639 Torsion                 76    24   140    88         151.56885
  640 Torsion                 76    24   140   109         -86.50207
  641 Torsion                 77    25   144    89         151.54600
  642 Torsion                 77    25   144   127         -86.57262
  643 Torsion                 79    37    29    96          32.98106
  644 Torsion                 79    37    47   110          33.16725
  645 Torsion                 80    16    43   106         -86.84423
  646 Torsion                 80    16    62   153        -128.63931
  647 Torsion                 81     5   129   142        -159.73050
  648 Torsion                 81     5   134   121         -11.03195
  649 Torsion                 82    94     8   133        -101.26770
  650 Torsion                 83    10   117   131          30.32535
  651 Torsion                 83    10   149   130          12.32030
  652 Torsion                 83    50    39   143         147.10823
  653 Torsion                 86     6   137   145        -159.72341
  654 Torsion                 86     6   138   124         -11.07839
  655 Torsion                 87    28    36    92         151.56748
  656 Torsion                 87    28    36    97         -86.49793
  657 Torsion                 88   140    59   126        -106.80508
  658 Torsion                 88   140   109   122         -86.67439
  659 Torsion                 89   144    63   130        -106.69452
  660 Torsion                 89   144   127   126         -86.84900
  661 Torsion                 90    33     9    98          80.01970
  662 Torsion                 90    33     9   108        -164.18997
  663 Torsion                 91    42    34   100         -11.47188
  664 Torsion                 91   139    84   113        -149.44968
  665 Torsion                 92    36    51   110        -106.79678
  666 Torsion                 92    36    97   106         -86.76923
  667 Torsion                 93    37    29    96         151.55011
  668 Torsion                 93    37    47   110         -86.90492
  669 Torsion                 93    37    79   114        -106.63066
  670 Torsion                 94     8    65   122        -103.99377
  671 Torsion                 95    46    38   139          26.87452
  672 Torsion                 95   143    85   148        -149.48816
  673 Torsion                 97    36    51   110         129.83428
  674 Torsion                 98     9   108   126        -103.55435
  675 Torsion                 99    23    13   107         -46.40835
  676 Torsion                 99    23    13   115        -164.15906
  677 Torsion                 99    23    13   147          79.91807
  678 Torsion                100    34    42   136        -133.86937
  679 Torsion                101    50    39   143          26.84310
  680 Torsion                102    26    18   146          30.30879
  681 Torsion                103    12    35   106          12.16107
  682 Torsion                103    12   104   120          30.21497
  683 Torsion                103   122    55   105         108.81061
  684 Torsion                103   122   109   140           7.80687
  685 Torsion                104    12    35   106        -103.72282
  686 Torsion                104    12   103   122         -86.82607
  687 Torsion                105    55   122   109         -11.44473
  688 Torsion                107    13   115   110          12.49647
  689 Torsion                107   126    59   140         147.06387
  690 Torsion                107   126   127   144           7.95963
  691 Torsion                108     9    98   123         147.13158
  692 Torsion                108   126    59   140         -95.57090
  693 Torsion                108   126   127   144        -109.29949
  694 Torsion                109   140    59   126         129.81834
  695 Torsion                109   140    88   150        -149.46267
  696 Torsion                110   115    13   147        -103.42278
  697 Torsion                111    86     6   137          27.19004
  698 Torsion                111    86     6   138         -93.21081
  699 Torsion                112    89   144   127        -149.42483
  700 Torsion                114    54    14   119          12.31871
  701 Torsion                115    13   107   126         156.62338
  702 Torsion                116     4   125   141        -159.62421
  703 Torsion                117    10   149   130        -103.63338
  704 Torsion                118    32    14   119          30.24603
  705 Torsion                119   130    63   144         146.98832
  706 Torsion                121   134     5   129        -131.64421
  707 Torsion                122    65     8   133         135.91815
  708 Torsion                124   138     6   137        -131.67490
  709 Torsion                126   107    13   147         -86.74673
  710 Torsion                127   126    59   140          26.81444
  711 Torsion                127   144    63   130         129.95122
  712 Torsion                128     4   125   141         -39.04149
  713 Torsion                131   117    10   149         147.13395
  714 Torsion                134     5   129   142         -39.11824
  715 Torsion                135   130    63   144          26.72650
  716 Torsion                136     4   125   141          81.54123
  717 Torsion                136    42    91   139        -109.55976
  718 Torsion                138     6   137   145         -39.12690
  719 Torsion                144    63   130   149         -95.63080
  720 Torsion                146    18    68   151         -12.53203


            XYZ format geometry
            -------------------
   153
 geometry
 O                     5.49243016    -1.68992057    -2.06522538
 H                    -0.40326490     6.35069652    -2.26048276
 H                     3.04531661   -10.24434531    -2.17200258
 Si                   -0.96817180    10.47534742    -1.41574155
 Si                    2.29097436     6.82565049    -1.41912506
 Si                    5.55111499     3.17697452    -1.42023246
 H                    -0.20603384    -6.59205418    -2.16086093
 Si                   -2.49558335     5.82877326    -1.36256719
 Si                    0.76227410     2.17820719    -1.36578809
 Si                    4.02489440    -1.47081526    -1.36760996
 H                    -3.46649062    -2.95007241    -2.16040177
 Si                   -4.02989470     1.18247246    -1.31099063
 Si                   -0.76787487    -2.46724456    -1.31261933
 Si                    2.49523093    -6.11915977    -1.31485246
 H                     0.92153618     8.29647409    -2.41350255
 Si                   -5.55839287    -3.46850909    -1.25859418
 Si                   -2.29737932    -7.11609698    -1.26095909
 Si                    0.95730446   -10.76629401    -1.26284285
 O                    -2.56351249     0.96459952    -2.01134761
 O                     1.42269189     7.26002686     2.74392880
 O                     4.68338540     3.61050637     2.74125665
 O                    -3.47998422    -6.61328015    -2.31573238
 O                     0.69818820    -2.68523950    -2.01341716
 O                    -0.10777905     2.61336970     2.79701210
 O                     3.15339179    -1.03686781     2.79476448
 O                    -0.22860003   -10.26360267    -2.31404371
 O                     3.96344712    -6.33932392    -2.01049983
 O                    -1.63885492    -2.03426101     2.84823807
 O                     1.62196314    -5.68511824     2.84570658
 H                    -1.94240449     1.70809631    -2.21805532
 H                    -6.92341375    -1.99829214    -2.26063317
 O                     1.31441415    -5.61643851    -2.37167379
 O                     2.22845893     1.96021632    -2.06637623
 O                    -3.11112799     9.20913516     1.04949420
 O                    -4.38822521    -0.34952069    -0.83461277
 Si                   -3.07965103    -2.57613273     2.29986915
 Si                    0.18057167    -6.22597271     2.29796805
 O                     0.15010323     5.56025815     1.04587262
 O                     3.41050986     1.91065341     1.04342327
 H                     4.58786652    -5.59751878    -2.21305907
 H                     0.53484951    10.62750365    -3.19323287
 Si                   -1.94840649     8.25516013     0.41412000
 O                    -5.62909041    -2.47957590     0.05532083
 O                    -2.36751624    -6.12798018     0.05340390
 O                    -4.09081350    -3.69119112    -1.95470795
 Si                    1.31224475     4.60517170     0.41113033
 O                    -0.59041370    -4.93330875     1.65334642
 H                    -3.66508061    -5.64646142    -2.25862612
 H                     3.48951297    -8.83498051     1.22530180
 Si                    4.57325533     0.95593722     0.40925860
 O                    -2.91095629    -3.73381911     1.14951545
 O                    -0.82978332    -7.33448746    -1.95864869
 O                     1.93271696     5.29404645    -0.94140182
 O                     2.13683291    -7.65043229    -0.83648378
 O                    -4.64071169     4.56283256     1.10095929
 O                     2.42225619   -10.98619097    -1.96513905
 O                     5.19367944     1.64496429    -0.94342424
 H                    -2.33424720    11.94829419    -2.41155399
 O                    -1.37925620     0.91372618     1.09801226
 H                     6.11653019    -0.94846759    -2.26898486
 H                    -2.13583138    -0.99493268    -2.30618093
 O                    -5.91984539    -4.99923829    -0.78080983
 O                     1.88111041    -2.73506613     1.09449188
 H                    -3.24984760    -3.62662598     4.17602746
 O                    -2.85621350     4.29733412    -0.88605416
 O                    -2.65487513    -8.64754716    -0.78218179
 H                     0.01166992    -7.27712518     4.17380159
 O                     0.60050839   -12.29774224    -0.78380643
 H                     6.55332574     0.46167765     1.11739452
 H                     5.02234801    -4.18644386     1.17184280
 H                    -6.03972686    -0.00749685     2.09960453
 H                     2.06510840     7.23806739     2.03089388
 H                     5.32557005     3.58867127     2.02800907
 O                    -2.56775199     6.81511956    -0.04701796
 O                     0.69299377     3.16510116    -0.05040784
 H                     0.53502541     2.59130834     2.08433005
 H                     3.79608750    -1.05892150     2.08198411
 O                     2.66755058    -8.58344655     1.65274594
 O                     0.34858857    -7.38286876     1.14647454
 O                    -6.73926490    -2.96532939    -2.31538587
 O                     1.10720780     7.32971111    -2.47209885
 H                    -3.85912020     7.30075079    -2.36387736
 O                     3.95411135    -0.48396760    -0.05230830
 O                    -0.81990955     6.05436353     3.45998604
 O                     2.44182034     2.40423291     3.45836421
 O                     4.36756571     3.68190725    -2.47282321
 H                    -0.99633838    -2.05616877     2.13529169
 O                    -2.35053793     1.40688023     3.51176089
 O                     0.91104389    -2.24371116     3.50967085
 H                     2.85157895     2.70258985    -2.27050216
 O                    -0.78801308     8.01127584     1.54909096
 O                    -3.88109391    -3.24129318     3.56394355
 O                    -0.61998994    -6.89160600     3.56226191
 O                    -3.67414116     6.33396150    -2.42081387
 O                     2.47097907     4.36096564     1.54787829
 H                     2.26403856    -5.70704176     2.13236337
 O                    -3.85057130    -1.28402332     1.65380682
 O                    -0.42245465     2.67916685    -2.41923706
 H                     1.32158715    -1.94283766    -2.21669972
 H                    -2.97887787     9.28681875     1.99716248
 O                     5.73190880     0.71266501     1.54620631
 H                    -0.41351633    -9.29671855    -2.25730252
 O                    -4.09838272     2.16889499     0.00467801
 O                    -5.21377621     1.68727921    -2.36349040
 H                    -4.50868146     4.64068582     2.04864430
 Si                   -5.00914647    -1.03995623     0.51711961
 O                    -0.83549126    -1.48117147     0.00330937
 O                     0.40677619     0.64635609    -0.88728665
 O                    -2.31870479     3.36409699     1.60182593
 Si                   -1.74803049    -4.68866660     0.51572766
 H                     4.18165799     4.64860973    -2.41370293
 H                     1.54219581    -2.62909097     4.12182251
 H                    -0.18876275     5.66921667     4.07228958
 Si                    1.51113709    -8.33896544     0.51390256
 O                    -1.12384271    -3.99929663    -0.83491775
 O                    -2.14848491    10.98148402    -2.47128532
 O                     2.84289734    -0.96787072    -2.42304915
 H                     1.12942036    -4.64954234    -2.31563800
 O                     2.42414003    -5.13032279    -0.00108309
 H                    -5.39951954     2.65381772    -2.30484378
 H                     3.78982220     6.97993011    -3.19995434
 Si                   -3.47809889     3.60840837     0.46609318
 H                    -0.60834112     3.64592949    -2.36289235
 H                     7.04994908     3.33253914    -3.20096152
 O                    -0.92259354    11.58315976     0.04013428
 Si                   -0.21628471    -0.04140356     0.46470038
 O                     0.94183348    -0.28532962     1.60179990
 O                     0.66026209    10.49755235    -2.25037321
 O                     2.33890720     7.93385157     0.03637926
 Si                    3.04358264    -3.69091123     0.46130489
 H                     2.65773222    -0.00104517    -2.36671349
 O                    -6.17173350    -0.08538559     1.15191914
 O                    -1.02639791     5.60832997    -2.05633539
 O                     3.91746041     6.84912386    -2.25751166
 O                     4.20052026    -3.93505211     1.59962934
 O                    -1.32817242     8.94387418    -0.93866400
 O                     5.59869975     4.28408169     0.03611551
 O                     7.17762000     3.20153134    -2.25855126
 Si                   -0.01833047     6.71865627     2.19565137
 Si                   -1.54845148     2.07177137     2.24807379
 H                    -0.07214927    11.50143273     0.47793017
 H                     3.18999068     7.85210415     0.47292742
 Si                    3.24224537     3.06890436     2.19343086
 Si                    1.71263256    -1.57826578     2.24600849
 H                     6.44974261     4.20213512     0.47270551
 O                     0.89059775    -9.77798823     0.05162337
 O                    -1.95212651    -1.96203672    -2.36441352
 H                     3.07353664     2.01889516     4.06995993
 O                     3.66786844    -3.00265677    -0.89008770
 H                    -1.71962523     1.02166363     4.12426178
 H                     0.61934938   -12.34575627     0.17480698
 H                    -2.63621906    -8.69570629     0.17642796
 H                    -5.90215028    -5.04784472     0.17779557

 ==============================================================================
                                internuclear distances
 ------------------------------------------------------------------------------
       center one      |      center two      | atomic units |  angstroms
 ------------------------------------------------------------------------------
   10 Si               |   1 O                |     3.09842  |     1.63961
   19 O                |  12 Si               |     3.09837  |     1.63959
   22 O                |  17 Si               |     3.14168  |     1.66251
   23 O                |  13 Si               |     3.09822  |     1.63951
   26 O                |  18 Si               |     3.14177  |     1.66256
   27 O                |  14 Si               |     3.09826  |     1.63953
   30 H                |  19 O                |     1.87196  |     0.99060
   32 O                |  14 Si               |     3.14168  |     1.66251
   33 O                |   9 Si               |     3.09825  |     1.63952
   35 O                |  12 Si               |     3.10648  |     1.64388
   36 Si               |  28 O                |     3.08797  |     1.63408
   37 Si               |  29 O                |     3.08792  |     1.63406
   40 H                |  27 O                |     1.87188  |     0.99056
   42 Si               |  34 O                |     3.08534  |     1.63269
   43 O                |  16 Si               |     3.11051  |     1.64601
   44 O                |  17 Si               |     3.11022  |     1.64586
   45 O                |  11 H                |     1.87202  |     0.99063
   45 O                |  16 Si               |     3.09820  |     1.63950
   46 Si               |  38 O                |     3.08533  |     1.63269
   47 O                |  37 Si               |     3.09415  |     1.63736
   48 H                |  22 O                |     1.86333  |     0.98603
   50 Si               |  39 O                |     3.08531  |     1.63267
   51 O                |  36 Si               |     3.10054  |     1.64073
   52 O                |   7 H                |     1.87184  |     0.99054
   52 O                |  17 Si               |     3.09840  |     1.63960
   53 O                |   5 Si               |     3.10650  |     1.64389
   53 O                |  46 Si               |     3.09873  |     1.63978
   54 O                |  14 Si               |     3.10633  |     1.64380
   56 O                |   3 H                |     1.87200  |     0.99062
   56 O                |  18 Si               |     3.09803  |     1.63941
   57 O                |   6 Si               |     3.10638  |     1.64383
   57 O                |  50 Si               |     3.09906  |     1.63995
   60 H                |   1 O                |     1.87147  |     0.99034
   62 O                |  16 Si               |     3.10632  |     1.64379
   65 O                |   8 Si               |     3.10653  |     1.64391
   66 O                |  17 Si               |     3.10650  |     1.64389
   68 O                |  18 Si               |     3.10635  |     1.64381
   72 H                |  20 O                |     1.81414  |     0.96000
   73 H                |  21 O                |     1.81414  |     0.96000
   74 O                |   8 Si               |     3.11017  |     1.64583
[...]
   38 O                |  46 Si               |  95 O                |   108.68
   53 O                |  46 Si               |  75 O                |   106.30
   53 O                |  46 Si               |  95 O                |   111.51
   75 O                |  46 Si               |  95 O                |   109.39
   37 Si               |  47 O                | 110 Si               |   136.27
   39 O                |  50 Si               |  57 O                |   110.13
   39 O                |  50 Si               |  83 O                |   110.80
   39 O                |  50 Si               | 101 O                |   108.68
   57 O                |  50 Si               |  83 O                |   106.30
   57 O                |  50 Si               | 101 O                |   111.50
   83 O                |  50 Si               | 101 O                |   109.42
   36 Si               |  51 O                | 110 Si               |   139.29
    7 H                |  52 O                |  17 Si               |   123.41
    5 Si               |  53 O                |  46 Si               |   135.53
   14 Si               |  54 O                | 114 Si               |   135.56
  105 H                |  55 O                | 122 Si               |   109.47
    3 H                |  56 O                |  18 Si               |   123.44
    6 Si               |  57 O                |  50 Si               |   135.49
  126 Si               |  59 O                | 140 Si               |   139.30
   16 Si               |  62 O                | 153 H                |   109.47
  130 Si               |  63 O                | 144 Si               |   139.28
    8 Si               |  65 O                | 122 Si               |   135.52
   17 Si               |  66 O                | 152 H                |   109.47
   18 Si               |  68 O                | 151 H                |   109.47
    8 Si               |  74 O                |  42 Si               |   137.49
    9 Si               |  75 O                |  46 Si               |   137.58
   49 H                |  78 O                | 114 Si               |   109.47
   37 Si               |  79 O                | 114 Si               |   139.26
   16 Si               |  80 O                |  31 H                |   113.22
    5 Si               |  81 O                |  15 H                |   113.18
   10 Si               |  83 O                |  50 Si               |   137.55
  113 H                |  84 O                | 139 Si               |   109.47
  143 Si               |  85 O                | 148 H                |   109.47
    6 Si               |  86 O                | 111 H                |   113.20
  140 Si               |  88 O                | 150 H                |   109.47
  112 H                |  89 O                | 144 Si               |   109.47
   42 Si               |  91 O                | 139 Si               |   136.27
   36 Si               |  92 O                |  64 H                |   109.47
   37 Si               |  93 O                |  67 H                |   109.47
    8 Si               |  94 O                |  82 H                |   113.22
   46 Si               |  95 O                | 143 Si               |   136.30
   36 Si               |  97 O                | 106 Si               |   136.30
    9 Si               |  98 O                | 123 H                |   113.17
   50 Si               | 101 O                |  69 H                |   109.47
   12 Si               | 103 O                | 122 Si               |   137.56
   12 Si               | 104 O                | 120 H                |   113.21
   35 O                | 106 Si               |  43 O                |   106.36
   35 O                | 106 Si               |  97 O                |   111.48
   35 O                | 106 Si               | 132 O                |   110.12
   43 O                | 106 Si               |  97 O                |   109.42
   43 O                | 106 Si               | 132 O                |   110.78
   97 O                | 106 Si               | 132 O                |   108.68
   13 Si               | 107 O                | 126 Si               |   137.58
    9 Si               | 108 O                | 126 Si               |   135.48
  122 Si               | 109 O                | 140 Si               |   136.29
   44 O                | 110 Si               |  47 O                |   109.41
   44 O                | 110 Si               |  51 O                |   110.79
   44 O                | 110 Si               | 115 O                |   106.36
   47 O                | 110 Si               |  51 O                |   108.69
   47 O                | 110 Si               | 115 O                |   111.41
   51 O                | 110 Si               | 115 O                |   110.18
   54 O                | 114 Si               |  78 O                |   111.41
   54 O                | 114 Si               |  79 O                |   110.17
   54 O                | 114 Si               | 146 O                |   106.36
   78 O                | 114 Si               |  79 O                |   108.67
   78 O                | 114 Si               | 146 O                |   109.43
   79 O                | 114 Si               | 146 O                |   110.79
   13 Si               | 115 O                | 110 Si               |   135.53
    4 Si               | 116 O                |  58 H                |   113.19
   10 Si               | 117 O                | 131 H                |   113.20
   14 Si               | 119 O                | 130 Si               |   137.63
   55 O                | 122 Si               |  65 O                |   110.18
   55 O                | 122 Si               | 103 O                |   110.76
   55 O                | 122 Si               | 109 O                |   108.72
   65 O                | 122 Si               | 103 O                |   106.33
   65 O                | 122 Si               | 109 O                |   111.42
  103 O                | 122 Si               | 109 O                |   109.42
    4 Si               | 125 O                | 141 H                |   109.47
   59 O                | 126 Si               | 107 O                |   110.80
   59 O                | 126 Si               | 108 O                |   110.19
   59 O                | 126 Si               | 127 O                |   108.71
  107 O                | 126 Si               | 108 O                |   106.31
  107 O                | 126 Si               | 127 O                |   109.40
  108 O                | 126 Si               | 127 O                |   111.43
  126 Si               | 127 O                | 144 Si               |   136.23
    4 Si               | 128 O                |  41 H                |   109.47
    5 Si               | 129 O                | 142 H                |   109.47
   63 O                | 130 Si               | 119 O                |   110.83
   63 O                | 130 Si               | 135 O                |   108.66
   63 O                | 130 Si               | 149 O                |   110.18
  119 O                | 130 Si               | 135 O                |   109.42
  119 O                | 130 Si               | 149 O                |   106.31
  135 O                | 130 Si               | 149 O                |   111.44
   71 H                | 132 O                | 106 Si               |   109.47
    2 H                | 133 O                |   8 Si               |   123.38
    5 Si               | 134 O                | 121 H                |   109.47
   70 H                | 135 O                | 130 Si               |   109.47
    4 Si               | 136 O                |  42 Si               |   135.52
    6 Si               | 137 O                | 145 H                |   109.47
    6 Si               | 138 O                | 124 H                |   109.47
   20 O                | 139 Si               |  38 O                |   112.24
   20 O                | 139 Si               |  84 O                |   107.88
   20 O                | 139 Si               |  91 O                |   106.59
   38 O                | 139 Si               |  84 O                |   107.75
   38 O                | 139 Si               |  91 O                |   109.20
   84 O                | 139 Si               |  91 O                |   113.26
   24 O                | 140 Si               |  59 O                |   112.24
   24 O                | 140 Si               |  88 O                |   107.89
   24 O                | 140 Si               | 109 O                |   106.60
   59 O                | 140 Si               |  88 O                |   107.75
   59 O                | 140 Si               | 109 O                |   109.20
   88 O                | 140 Si               | 109 O                |   113.24
   21 O                | 143 Si               |  39 O                |   112.24
   21 O                | 143 Si               |  85 O                |   107.85
   21 O                | 143 Si               |  95 O                |   106.62
   39 O                | 143 Si               |  85 O                |   107.75
   39 O                | 143 Si               |  95 O                |   109.21
   85 O                | 143 Si               |  95 O                |   113.24
   25 O                | 144 Si               |  63 O                |   112.25
   25 O                | 144 Si               |  89 O                |   107.88
   25 O                | 144 Si               | 127 O                |   106.59
   63 O                | 144 Si               |  89 O                |   107.77
   63 O                | 144 Si               | 127 O                |   109.20
   89 O                | 144 Si               | 127 O                |   113.21
   18 Si               | 146 O                | 114 Si               |   137.68
   13 Si               | 147 O                |  61 H                |   113.16
   10 Si               | 149 O                | 130 Si               |   135.49
 ------------------------------------------------------------------------------
                            number of included internuclear angles:        240
 ==============================================================================





 Summary of "ao basis" -> "" (cartesian)
 ------------------------------------------------------------------------------
       Tag                 Description            Shells   Functions and Types
 ---------------- ------------------------------  ------  ---------------------
 *                        lanl2dz_ecp                 on all atoms 


                 ECP       "ecp basis" -> "" (cartesian)
                -----
  Si (Silicon) Replaces    10 electrons
  -------------------------------------
             Channel    R-exponent     Exponent     Coefficients
         ------------ ---------------------------------------------------------
  1 U L       Both         1.00      505.313769     -10.000000
  1 U L       Both         2.00      103.222103     -84.923609
  1 U L       Both         2.00       23.456925     -30.329941
  1 U L       Both         2.00        6.750569     -12.104905
  1 U L       Both         2.00        2.160314      -1.894541

  2 U-s       Both         0.00      689.491072       3.000000
  2 U-s       Both         1.00      114.172851      60.520683
  2 U-s       Both         2.00       35.742434     201.308614
  2 U-s       Both         2.00        9.452959      65.939975
  2 U-s       Both         2.00        2.254359      19.030079

  3 U-p       Both         0.00       88.937936       5.000000
  3 U-p       Both         1.00       76.777354       6.641382
  3 U-p       Both         2.00       56.148099     247.597242
  3 U-p       Both         2.00       21.187401     129.371538
  3 U-p       Both         2.00        6.827728      47.461711
  3 U-p       Both         2.00        2.100119      11.737657


                                 NWChem DFT Module
                                 -----------------


                                      Q-G ecp


                      Basis "ao basis" -> "ao basis" (cartesian)
                      -----
  O (Oxygen)
  ----------
            Exponent  Coefficients 
       -------------- ---------------------------------------------------------
  1 S  7.81700000E+03  0.001176
  1 S  1.17600000E+03  0.008968
  1 S  2.73200000E+02  0.042868
  1 S  8.11700000E+01  0.143930
  1 S  2.71800000E+01  0.355630
  1 S  9.53200000E+00  0.461248
  1 S  3.41400000E+00  0.140206

  2 S  9.53200000E+00 -0.154153
  2 S  9.39800000E-01  1.056914

  3 S  2.84600000E-01  1.000000

  4 P  3.51800000E+01  0.019580
  4 P  7.90400000E+00  0.124200
  4 P  2.30500000E+00  0.394714
  4 P  7.17100000E-01  0.627376

  5 P  2.13700000E-01  1.000000

  H (Hydrogen)
  ------------
            Exponent  Coefficients 
       -------------- ---------------------------------------------------------
  1 S  1.92384000E+01  0.032828
  1 S  2.89870000E+00  0.231204
  1 S  6.53500000E-01  0.817226

  2 S  1.77600000E-01  1.000000

  Si (Silicon)
  ------------
            Exponent  Coefficients 
       -------------- ---------------------------------------------------------
  1 S  1.22200000E+00 -0.570734
  1 S  2.59500000E-01  1.282383

  2 S  9.31000000E-02  1.000000

  3 P  2.58000000E+00 -0.077725
  3 P  2.98400000E-01  1.019787

  4 P  8.85000000E-02  1.000000



 Summary of "ao basis" -> "ao basis" (cartesian)
 ------------------------------------------------------------------------------
       Tag                 Description            Shells   Functions and Types
 ---------------- ------------------------------  ------  ---------------------
 O                        lanl2dz ecp                5        9   3s2p
 H                        lanl2dz ecp                2        2   2s
 Si                       lanl2dz ecp                4        8   2s2p



  Caching 1-el integrals 
  WARNING: movecs_in_org=atomic not equal to movecs_in=./molecule.movecs
   Time after variat. SCF:      9.6
   Time prior to 1st pass:      9.6

           Memory utilization after 1st SCF pass: 
           Heap Space remaining (MW):       25.99            25986454
          Stack Space remaining (MW):       26.18            26184716

   convergence    iter        energy       DeltaE   RMS-Dens  Diis-err    time
 ---------------- ----- ----------------- --------- --------- ---------  ------
 d= 0,ls=0.0,diis     1  -6002.7593561082 -2.99D+04  8.77D-03  2.09D+01    97.9
 d= 0,ls=0.5,diis     2  -6000.6453063502  2.11D+00  2.38D-03  3.49D+01   103.1
 d= 0,ls=0.5,diis     3  -6003.9287403749 -3.28D+00  4.89D-03  3.39D+00   105.6
 d= 0,ls=0.5,diis     4  -6004.8901730414 -9.61D-01  4.44D-04  1.27D+00   108.1
 d= 0,ls=0.5,diis     5  -6004.9781966148 -8.80D-02  3.33D-04  4.65D-01   110.4
  Resetting Diis
 d= 0,ls=0.5,diis     6  -6005.0102926843 -3.21D-02  2.43D-04  3.08D-01   112.8
 d= 0,ls=0.5,diis     7  -6005.0350200471 -2.47D-02  4.50D-04  1.56D-01   115.5
 d= 0,ls=0.5,diis     8  -6005.0532771444 -1.83D-02  1.58D-04  6.82D-02   118.3
 d= 0,ls=0.5,diis     9  -6005.0596855122 -6.41D-03  5.47D-05  6.32D-03   121.6
 d= 0,ls=0.5,diis    10  -6005.0604037893 -7.18D-04  2.50D-05  8.47D-04   125.0
 d= 0,ls=0.5,diis    11  -6005.0605316989 -1.28D-04  1.26D-05  1.12D-04   128.4
 d= 0,ls=0.5,diis    12  -6005.0605589448 -2.72D-05  6.89D-06  1.73D-05   131.7
 d= 0,ls=0.5,diis    13  -6005.0605660693 -7.12D-06  3.88D-06  5.63D-06   135.1
 d= 0,ls=0.5,diis    14  -6005.0605684311 -2.36D-06  2.28D-06  1.93D-06   138.1
 d= 0,ls=0.5,diis    15  -6005.0605692764 -8.45D-07  1.36D-06  6.32D-07   141.1


         Total DFT energy =    -6005.060569577308
      One electron energy =   -56002.850450553087
           Coulomb energy =    26828.434183219786
    Exchange-Corr. energy =     -726.235679199611
 Nuclear repulsion energy =    23895.591376955603

 Numeric. integr. density =      780.000326411439

     Total iterative time =    134.5s




                                NWChem Input Module
                                -------------------




                                     CITATION
                                     --------
                Please cite the following reference when publishing
                           results obtained with NWChem:

          E. Apra, E. J. Bylaska, W. A. de Jong, N. Govind, K. Kowalski,
       T. P. Straatsma, M. Valiev, H. J. J. van Dam, Y. Alexeev, J. Anchell,
       V. Anisimov, F. W. Aquino, R. Atta-Fynn, J. Autschbach, N. P. Bauman,
     J. C. Becca, D. E. Bernholdt, K. Bhaskaran-Nair, S. Bogatko, P. Borowski,
         J. Boschen, J. Brabec, A. Bruner, E. Cauet, Y. Chen, G. N. Chuev,
      C. J. Cramer, J. Daily, M. J. O. Deegan, T. H. Dunning Jr., M. Dupuis,
   K. G. Dyall, G. I. Fann, S. A. Fischer, A. Fonari, H. Fruchtl, L. Gagliardi,
      J. Garza, N. Gawande, S. Ghosh, K. Glaesemann, A. W. Gotz, J. Hammond,
       V. Helms, E. D. Hermes, K. Hirao, S. Hirata, M. Jacquelin, L. Jensen,
   B. G. Johnson, H. Jonsson, R. A. Kendall, M. Klemm, R. Kobayashi, V. Konkov,
      S. Krishnamoorthy, M. Krishnan, Z. Lin, R. D. Lins, R. J. Littlefield,
      A. J. Logsdail, K. Lopata, W. Ma, A. V. Marenich, J. Martin del Campo,
   D. Mejia-Rodriguez, J. E. Moore, J. M. Mullin, T. Nakajima, D. R. Nascimento,
    J. A. Nichols, P. J. Nichols, J. Nieplocha, A. Otero-de-la-Roza, B. Palmer,
    A. Panyala, T. Pirojsirikul, B. Peng, R. Peverati, J. Pittner, L. Pollack,
   R. M. Richard, P. Sadayappan, G. C. Schatz, W. A. Shelton, D. W. Silverstein,
   D. M. A. Smith, T. A. Soares, D. Song, M. Swart, H. L. Taylor, G. S. Thomas,
            V. Tipparaju, D. G. Truhlar, K. Tsemekhman, T. Van Voorhis,
      A. Vazquez-Mayagoitia, P. Verma, O. Villa, A. Vishnu, K. D. Vogiatzis,
        D. Wang, J. H. Weare, M. J. Williamson, T. L. Windus, K. Wolinski,
        A. T. Wong, Q. Wu, C. Yang, Q. Yu, M. Zacharias, Z. Zhang, Y. Zhao,
                                and R. J. Harrison
                        "NWChem: Past, present, and future
                         J. Chem. Phys. 152, 184102 (2020)
                               doi:10.1063/5.0004997

                                      AUTHORS
                                      -------
  E. Apra, E. J. Bylaska, N. Govind, K. Kowalski, M. Valiev, D. Mejia-Rodriguez,
       A. Kunitsa, N. P. Bauman, A. Panyala, W. A. de Jong, T. P. Straatsma,
   H. J. J. van Dam, D. Wang, T. L. Windus, J. Hammond, J. Autschbach, A. Woods,
    K. Bhaskaran-Nair, J. Brabec, K. Lopata, S. A. Fischer, S. Krishnamoorthy,
     M. Jacquelin, W. Ma, M. Klemm, O. Villa, Y. Chen, V. Anisimov, F. Aquino,
     S. Hirata, M. T. Hackler, E. Hermes, L. Jensen, J. E. Moore, J. C. Becca,
      V. Konjkov, T. Risthaus, M. Malagoli, A. Marenich, A. Otero-de-la-Roza,
        J. Mullin, P. Nichols, R. Peverati, J. Pittner, Y. Zhao, P.-D. Fan,
        A. Fonari, M. J. Williamson, R. J. Harrison, J. R. Rehr, M. Dupuis,
     D. Silverstein, D. M. A. Smith, J. Nieplocha, V. Tipparaju, M. Krishnan,
     B. E. Van Kuiken, A. Vazquez-Mayagoitia, M. Swart, Q. Wu, T. Van Voorhis,
     A. A. Auer, M. Nooijen, L. D. Crosby, E. Brown, G. Cisneros, G. I. Fann,
   H. Fruchtl, J. Garza, K. Hirao, R. A. Kendall, J. A. Nichols, K. Tsemekhman,
    K. Wolinski, J. Anchell, D. E. Bernholdt, P. Borowski, T. Clark, D. Clerc,
   H. Dachsel, M. J. O. Deegan, K. Dyall, D. Elwood, E. Glendening, M. Gutowski,
   A. C. Hess, J. Jaffe, B. G. Johnson, J. Ju, R. Kobayashi, R. Kutteh, Z. Lin,
   R. Littlefield, X. Long, B. Meng, T. Nakajima, S. Niu, L. Pollack, M. Rosing,
   K. Glaesemann, G. Sandrone, M. Stave, H. Taylor, G. Thomas, J. H. van Lenthe,
                               A. T. Wong, Z. Zhang.

 Total times  cpu:      137.4s     wall:      146.7s
