
     Program PWSCF v.6.3MaX starts on  6Jul2020 at 13:40:11 

     This program is part of the open-source Quantum ESPRESSO suite
     for quantum simulation of materials; please cite
         "P. Giannozzi et al., J. Phys.:Condens. Matter 21 395502 (2009);
         "P. Giannozzi et al., J. Phys.:Condens. Matter 29 465901 (2017);
          URL http://www.quantum-espresso.org", 
     in publications or presentations arising from this work. More details at
     http://www.quantum-espresso.org/quote

     Parallel version (MPI & OpenMP), running on      12 processor cores
     Number of MPI processes:                 1
     Threads/MPI process:                    12

     MPI processes distributed on     1 nodes
     Waiting for input...
     Reading input from standard input

     Current dimensions of program PWSCF are:
     Max number of different atomic species (ntypx) = 10
     Max number of k-points (npk) =  40000
     Max angular momentum in pseudopotentials (lmaxx) =  3
     Message from routine read_upf::
     Pseudo file ./Si.rel-pbe-n-kjpaw_psl.0.1.UPF has been successfully fixed on the fly.
To avoid this message in the future you can permanently fix 
 your pseudo files following instructions given in: 
https://gitlab.com/QEF/q-e/blob/master/upftools/how_to_fix_upf.md
               file Si.rel-pbe-n-kjpaw_psl.0.1.UPF: wavefunction(s)  3S renormalized

     Subspace diagonalization in iterative solution of the eigenvalue problem:
     a serial algorithm will be used

 
     G-vector sticks info
     --------------------
     sticks:   dense  smooth     PW     G-vecs:    dense   smooth      PW
     Sum         361     361    121                 4477     4477     869
 


     bravais-lattice index     =            0
     lattice parameter (alat)  =       8.0174  a.u.
     unit-cell volume          =     364.4101 (a.u.)^3
     number of atoms/cell      =            2
     number of atomic types    =            1
     number of electrons       =         8.00
     number of Kohn-Sham states=           20
     kinetic-energy cutoff     =      20.0000  Ry
     charge density cutoff     =      80.0000  Ry
     convergence threshold     =      1.0E-06
     mixing beta               =       0.7000
     number of iterations used =            8  plain     mixing
     Exchange-correlation      = SLA PW PBX PBC ( 1  4  3  4 0 0)
     nstep                     =           50

     Non magnetic calculation with spin-orbit


     celldm(1)=   8.017429  celldm(2)=   0.000000  celldm(3)=   0.000000
     celldm(4)=   0.000000  celldm(5)=   0.000000  celldm(6)=   0.000000

     crystal axes: (cart. coord. in units of alat)
               a(1) = (   0.000000   0.707107   0.707107 )  
               a(2) = (   0.707107   0.000000   0.707107 )  
               a(3) = (   0.707107   0.707107   0.000000 )  

     reciprocal axes: (cart. coord. in units 2 pi/alat)
               b(1) = ( -0.707107  0.707107  0.707107 )  
               b(2) = (  0.707107 -0.707107  0.707107 )  
               b(3) = (  0.707107  0.707107 -0.707107 )  


     PseudoPot. # 1 for Si read from file:
     ./Si.rel-pbe-n-kjpaw_psl.0.1.UPF
     MD5 check sum: 67eb1bc5c689d7b48afd963eedacb1f1
     Pseudo is Projector augmented-wave + core cor, Zval =  4.0
     Generated using "atomic" code by A. Dal Corso v.5.0.2 svn rev. 9415
     Shape of augmentation charge: PSQ
     Using radial grid of 1141 points,  6 beta functions with: 
                l(1) =   0
                l(2) =   0
                l(3) =   1
                l(4) =   1
                l(5) =   1
                l(6) =   1
     Q(r) pseudized with 0 coefficients 


     atomic species   valence    mass     pseudopotential
        Si             4.00    27.97693     Si( 1.00)

     12 Sym. Ops., with inversion, found



   Cartesian axes

     site n.     atom                  positions (alat units)
         1           Si  tau(   1) = (  -0.1599829  -0.1599829  -0.1599829  )
         2           Si  tau(   2) = (   0.1599829   0.1599829   0.1599829  )

     number of k points=   116

     Number of k-points >= 100: set verbosity='high' to print them.

     Dense  grid:     4477 G-vectors     FFT dimensions: (  24,  24,  24)

     Estimated max dynamical RAM per process >      57.44 MB

     Check: negative/imaginary core charge=   -0.000009    0.000000

     Initial potential from superposition of free atoms

     starting charge    7.99890, renormalised to    8.00000
     Starting wfcs are   16 randomized atomic wfcs +    4 random wfcs
     Checking if some PAW data can be deallocated... 

     total cpu time spent up to now is        4.5 secs

     Self-consistent Calculation

     iteration #  1     ecut=    20.00 Ry     beta= 0.70
     Davidson diagonalization with overlap
     ethr =  1.00E-02,  avg # of iterations =  5.3

     Threshold (ethr) on eigenvalues was too large:
     Diagonalizing with lowered threshold

     Davidson diagonalization with overlap
     ethr =  4.43E-04,  avg # of iterations =  1.7

     total cpu time spent up to now is       24.4 secs

     total energy              =     -93.39351988 Ry
     Harris-Foulkes estimate   =     -93.39846551 Ry
     estimated scf accuracy    <       0.03493516 Ry

     iteration #  2     ecut=    20.00 Ry     beta= 0.70
     Davidson diagonalization with overlap
     ethr =  4.37E-04,  avg # of iterations =  1.1

     total cpu time spent up to now is       31.7 secs

     total energy              =     -93.39414901 Ry
     Harris-Foulkes estimate   =     -93.39428262 Ry
     estimated scf accuracy    <       0.00204284 Ry

     iteration #  3     ecut=    20.00 Ry     beta= 0.70
     Davidson diagonalization with overlap
     ethr =  2.55E-05,  avg # of iterations =  3.6

     total cpu time spent up to now is       40.4 secs

     total energy              =     -93.39419186 Ry
     Harris-Foulkes estimate   =     -93.39418977 Ry
     estimated scf accuracy    <       0.00001560 Ry

     iteration #  4     ecut=    20.00 Ry     beta= 0.70
     Davidson diagonalization with overlap
     ethr =  1.95E-07,  avg # of iterations =  4.7

     total cpu time spent up to now is       50.9 secs

     End of self-consistent calculation

     Number of k-points >= 100: set verbosity='high' to print the bands.

     highest occupied, lowest unoccupied level (ev):     4.0611    3.7595

!    total energy              =     -93.39419827 Ry
     Harris-Foulkes estimate   =     -93.39419816 Ry
     estimated scf accuracy    <       0.00000019 Ry

     total all-electron energy =     -1160.076256 Ry

     The total energy is the sum of the following terms:

     one-electron contribution =       3.51873215 Ry
     hartree contribution      =       1.39252141 Ry
     xc contribution           =     -11.94086682 Ry
     ewald contribution        =     -15.15087361 Ry
     one-center paw contrib.   =     -71.21371141 Ry

     convergence has been achieved in   4 iterations

     Forces acting on atoms (cartesian axes, Ry/au):

     atom    1 type  1   force =    -0.05142275   -0.05142275   -0.05142275
     atom    2 type  1   force =     0.05142275    0.05142275    0.05142275

     Total force =     0.125960     Total SCF correction =     0.000005


     Computing stress (Cartesian axis) and pressure

     Message from routine stres:
     noncollinear stress + GGA not implemented

     BFGS Geometry Optimization

     number of scf cycles    =   1
     number of bfgs steps    =   0

     enthalpy new            =     -93.3941982660 Ry

     new trust radius        =       0.0890668180 bohr
     new conv_thr            =       0.0000010000 Ry

     new unit-cell volume =    364.41007 a.u.^3 (    54.00000 Ang^3 )
     density =      1.72062 g/cm^3

CELL_PARAMETERS (angstrom)
   0.000000000   3.000000000   3.000000000
   3.000000000   0.000000000   3.000000000
   3.000000000   3.000000000   0.000000000

ATOMIC_POSITIONS (angstrom)
Si      -0.705961748  -0.705961748  -0.705961748
Si       0.705961748   0.705961748   0.705961748



     Writing output data file qe.save/
     NEW-OLD atomic charge density approx. for the potential

     Check: negative/imaginary core charge=   -0.000009    0.000000

     total cpu time spent up to now is       51.7 secs

     Self-consistent Calculation

     iteration #  1     ecut=    20.00 Ry     beta= 0.70
     Davidson diagonalization with overlap
     ethr =  1.00E-06,  avg # of iterations =  6.2

     total cpu time spent up to now is       68.4 secs

     total energy              =     -93.40661626 Ry
     Harris-Foulkes estimate   =     -93.41046061 Ry
     estimated scf accuracy    <       0.00018125 Ry

     iteration #  2     ecut=    20.00 Ry     beta= 0.70
     Davidson diagonalization with overlap
     ethr =  2.27E-06,  avg # of iterations =  1.0

     total cpu time spent up to now is       75.7 secs

     total energy              =     -93.40662696 Ry
     Harris-Foulkes estimate   =     -93.40662545 Ry
     estimated scf accuracy    <       0.00001343 Ry

     iteration #  3     ecut=    20.00 Ry     beta= 0.70
     Davidson diagonalization with overlap
     ethr =  1.68E-07,  avg # of iterations =  1.0

     total cpu time spent up to now is       82.8 secs

     End of self-consistent calculation

     Number of k-points >= 100: set verbosity='high' to print the bands.

     highest occupied, lowest unoccupied level (ev):     3.8313    3.8582

!    total energy              =     -93.40662768 Ry
     Harris-Foulkes estimate   =     -93.40662764 Ry
     estimated scf accuracy    <       0.00000037 Ry

     total all-electron energy =     -1160.088686 Ry

     The total energy is the sum of the following terms:

     one-electron contribution =       3.54350949 Ry
     hartree contribution      =       1.38363204 Ry
     xc contribution           =     -11.93762282 Ry
     ewald contribution        =     -15.18493776 Ry
     one-center paw contrib.   =     -71.21120863 Ry

     convergence has been achieved in   3 iterations

     Forces acting on atoms (cartesian axes, Ry/au):

     atom    1 type  1   force =    -0.02973408   -0.02973408   -0.02973408
     atom    2 type  1   force =     0.02973408    0.02973408    0.02973408

     Total force =     0.072833     Total SCF correction =     0.000252


     Computing stress (Cartesian axis) and pressure

     Message from routine stres:
     noncollinear stress + GGA not implemented

     number of scf cycles    =   2
     number of bfgs steps    =   1

     enthalpy old            =     -93.3941982660 Ry
     enthalpy new            =     -93.4066276762 Ry

     CASE: enthalpy_new < enthalpy_old

     new trust radius        =       0.0979734998 bohr
     new conv_thr            =       0.0000002973 Ry

     new unit-cell volume =    364.41007 a.u.^3 (    54.00000 Ang^3 )
     density =      1.72062 g/cm^3

CELL_PARAMETERS (angstrom)
   0.000000000   3.000000000   3.000000000
   3.000000000   0.000000000   3.000000000
   3.000000000   3.000000000   0.000000000

ATOMIC_POSITIONS (angstrom)
Si      -0.735894671  -0.735894671  -0.735894671
Si       0.735894671   0.735894671   0.735894671



     Writing output data file qe.save/
     NEW-OLD atomic charge density approx. for the potential

     Check: negative/imaginary core charge=   -0.000009    0.000000

     total cpu time spent up to now is       83.5 secs

     Self-consistent Calculation

     iteration #  1     ecut=    20.00 Ry     beta= 0.70
     Davidson diagonalization with overlap
     ethr =  1.00E-06,  avg # of iterations =  6.3

     total cpu time spent up to now is      102.1 secs

     total energy              =     -93.41311408 Ry
     Harris-Foulkes estimate   =     -93.41622443 Ry
     estimated scf accuracy    <       0.00019959 Ry

     iteration #  2     ecut=    20.00 Ry     beta= 0.70
     Davidson diagonalization with overlap
     ethr =  2.49E-06,  avg # of iterations =  1.0

     total cpu time spent up to now is      111.7 secs

     total energy              =     -93.41311864 Ry
     Harris-Foulkes estimate   =     -93.41311587 Ry
     estimated scf accuracy    <       0.00001631 Ry

     iteration #  3     ecut=    20.00 Ry     beta= 0.70
     Davidson diagonalization with overlap
     ethr =  2.04E-07,  avg # of iterations =  1.0

     total cpu time spent up to now is      120.1 secs

     End of self-consistent calculation

     Number of k-points >= 100: set verbosity='high' to print the bands.

     highest occupied, lowest unoccupied level (ev):     3.6091    3.7651

!    total energy              =     -93.41311913 Ry
     Harris-Foulkes estimate   =     -93.41311911 Ry
     estimated scf accuracy    <       0.00000005 Ry

     total all-electron energy =     -1160.095177 Ry

     The total energy is the sum of the following terms:

     one-electron contribution =       3.55451775 Ry
     hartree contribution      =       1.37995951 Ry
     xc contribution           =     -11.93638171 Ry
     ewald contribution        =     -15.20138500 Ry
     one-center paw contrib.   =     -71.20982967 Ry

     convergence has been achieved in   3 iterations

     Forces acting on atoms (cartesian axes, Ry/au):

     atom    1 type  1   force =    -0.00887161   -0.00887161   -0.00887161
     atom    2 type  1   force =     0.00887161    0.00887161    0.00887161

     Total force =     0.021731     Total SCF correction =     0.000009


     Computing stress (Cartesian axis) and pressure

     Message from routine stres:
     noncollinear stress + GGA not implemented

     number of scf cycles    =   3
     number of bfgs steps    =   2

     enthalpy old            =     -93.4066276762 Ry
     enthalpy new            =     -93.4131191327 Ry

     CASE: enthalpy_new < enthalpy_old

     new trust radius        =       0.0416625243 bohr
     new conv_thr            =       0.0000000887 Ry

     new unit-cell volume =    364.41007 a.u.^3 (    54.00000 Ang^3 )
     density =      1.72062 g/cm^3

CELL_PARAMETERS (angstrom)
   0.000000000   3.000000000   3.000000000
   3.000000000   0.000000000   3.000000000
   3.000000000   3.000000000   0.000000000

ATOMIC_POSITIONS (angstrom)
Si      -0.748623430  -0.748623430  -0.748623430
Si       0.748623430   0.748623430   0.748623430



     Writing output data file qe.save/
     NEW-OLD atomic charge density approx. for the potential

     Check: negative/imaginary core charge=   -0.000009    0.000000

     total cpu time spent up to now is      120.9 secs

     Self-consistent Calculation

     iteration #  1     ecut=    20.00 Ry     beta= 0.70
     Davidson diagonalization with overlap
     c_bands:  2 eigenvalues not converged
     ethr =  1.00E-06,  avg # of iterations =  5.0

     total cpu time spent up to now is      135.4 secs

     total energy              =     -93.41381221 Ry
     Harris-Foulkes estimate   =     -93.41429513 Ry
     estimated scf accuracy    <       0.00003867 Ry

     iteration #  2     ecut=    20.00 Ry     beta= 0.70
     Davidson diagonalization with overlap
     ethr =  4.83E-07,  avg # of iterations =  1.0

     total cpu time spent up to now is      142.6 secs

     total energy              =     -93.41381360 Ry
     Harris-Foulkes estimate   =     -93.41381305 Ry
     estimated scf accuracy    <       0.00000305 Ry

     iteration #  3     ecut=    20.00 Ry     beta= 0.70
     Davidson diagonalization with overlap
     ethr =  3.82E-08,  avg # of iterations =  1.1

     total cpu time spent up to now is      149.9 secs

     End of self-consistent calculation

     Number of k-points >= 100: set verbosity='high' to print the bands.

     highest occupied, lowest unoccupied level (ev):     3.5050    3.7661

!    total energy              =     -93.41381374 Ry
     Harris-Foulkes estimate   =     -93.41381373 Ry
     estimated scf accuracy    <       0.00000001 Ry

     total all-electron energy =     -1160.095872 Ry

     The total energy is the sum of the following terms:

     one-electron contribution =       3.55555002 Ry
     hartree contribution      =       1.37964979 Ry
     xc contribution           =     -11.93629173 Ry
     ewald contribution        =     -15.20302900 Ry
     one-center paw contrib.   =     -71.20969281 Ry

     convergence has been achieved in   3 iterations

     Forces acting on atoms (cartesian axes, Ry/au):

     atom    1 type  1   force =    -0.00079699   -0.00079699   -0.00079699
     atom    2 type  1   force =     0.00079699    0.00079699    0.00079699

     Total force =     0.001952     Total SCF correction =     0.000015


     Computing stress (Cartesian axis) and pressure

     Message from routine stres:
     noncollinear stress + GGA not implemented

     number of scf cycles    =   4
     number of bfgs steps    =   3

     enthalpy old            =     -93.4131191327 Ry
     enthalpy new            =     -93.4138137366 Ry

     CASE: enthalpy_new < enthalpy_old

     new trust radius        =       0.0041121916 bohr
     new conv_thr            =       0.0000000100 Ry

     new unit-cell volume =    364.41007 a.u.^3 (    54.00000 Ang^3 )
     density =      1.72062 g/cm^3

CELL_PARAMETERS (angstrom)
   0.000000000   3.000000000   3.000000000
   3.000000000   0.000000000   3.000000000
   3.000000000   3.000000000   0.000000000

ATOMIC_POSITIONS (angstrom)
Si      -0.749879790  -0.749879790  -0.749879790
Si       0.749879790   0.749879790   0.749879790



     Writing output data file qe.save/
     NEW-OLD atomic charge density approx. for the potential

     Check: negative/imaginary core charge=   -0.000009    0.000000

     total cpu time spent up to now is      150.6 secs

     Self-consistent Calculation

     iteration #  1     ecut=    20.00 Ry     beta= 0.70
     Davidson diagonalization with overlap
     ethr =  1.00E-06,  avg # of iterations =  2.2

     Threshold (ethr) on eigenvalues was too large:
     Diagonalizing with lowered threshold

     Davidson diagonalization with overlap
     ethr =  4.84E-09,  avg # of iterations =  2.7

     total cpu time spent up to now is      168.8 secs

     total energy              =     -93.41382019 Ry
     Harris-Foulkes estimate   =     -93.41382505 Ry
     estimated scf accuracy    <       0.00000038 Ry

     iteration #  2     ecut=    20.00 Ry     beta= 0.70
     Davidson diagonalization with overlap
     ethr =  4.69E-09,  avg # of iterations =  1.0

     total cpu time spent up to now is      176.0 secs

     total energy              =     -93.41382020 Ry
     Harris-Foulkes estimate   =     -93.41382020 Ry
     estimated scf accuracy    <       0.00000003 Ry

     iteration #  3     ecut=    20.00 Ry     beta= 0.70
     Davidson diagonalization with overlap
     ethr =  3.76E-10,  avg # of iterations =  1.1

     total cpu time spent up to now is      183.0 secs

     End of self-consistent calculation

     Number of k-points >= 100: set verbosity='high' to print the bands.

     highest occupied, lowest unoccupied level (ev):     3.4948    3.7661

!    total energy              =     -93.41382020 Ry
     Harris-Foulkes estimate   =     -93.41382020 Ry
     estimated scf accuracy    <          2.0E-10 Ry

     total all-electron energy =     -1160.095878 Ry

     The total energy is the sum of the following terms:

     one-electron contribution =       3.55554411 Ry
     hartree contribution      =       1.37965023 Ry
     xc contribution           =     -11.93629019 Ry
     ewald contribution        =     -15.20304391 Ry
     one-center paw contrib.   =     -71.20968045 Ry

     convergence has been achieved in   3 iterations

     Forces acting on atoms (cartesian axes, Ry/au):

     atom    1 type  1   force =    -0.00006898   -0.00006898   -0.00006898
     atom    2 type  1   force =     0.00006898    0.00006898    0.00006898

     Total force =     0.000169     Total SCF correction =     0.000004


     Computing stress (Cartesian axis) and pressure

     Message from routine stres:
     noncollinear stress + GGA not implemented

     bfgs converged in   5 scf cycles and   4 bfgs steps
     (criteria: energy <  1.0E-04 Ry, force <  1.0E-03Ry/Bohr, cell <  5.0E-01kbar)

     End of BFGS Geometry Optimization

     Final enthalpy =     -93.4138202019 Ry
Begin final coordinates
     new unit-cell volume =    364.41007 a.u.^3 (    54.00000 Ang^3 )
     density =      1.72062 g/cm^3

CELL_PARAMETERS (angstrom)
   0.000000000   3.000000000   3.000000000
   3.000000000   0.000000000   3.000000000
   3.000000000   3.000000000   0.000000000

ATOMIC_POSITIONS (angstrom)
Si      -0.749879790  -0.749879790  -0.749879790
Si       0.749879790   0.749879790   0.749879790
End final coordinates



     Writing output data file qe.save/

     A final scf calculation at the relaxed structure.
     The G-vectors are recalculated for the final unit cell
     Results may differ from those at the preceding step.
 
     G-vector sticks info
     --------------------
     sticks:   dense  smooth     PW     G-vecs:    dense   smooth      PW
     Sum         361     361    121                 4477     4477     869
 


     bravais-lattice index     =            0
     lattice parameter (alat)  =       8.0174  a.u.
     unit-cell volume          =     364.4101 (a.u.)^3
     number of atoms/cell      =            2
     number of atomic types    =            1
     number of electrons       =         8.00
     number of Kohn-Sham states=           20
     kinetic-energy cutoff     =      20.0000  Ry
     charge density cutoff     =      80.0000  Ry
     convergence threshold     =      1.0E-08
     mixing beta               =       0.7000
     number of iterations used =            8  plain     mixing
     Exchange-correlation      = SLA PW PBX PBC ( 1  4  3  4 0 0)
     Non magnetic calculation with spin-orbit


     celldm(1)=   8.017429  celldm(2)=   0.000000  celldm(3)=   0.000000
     celldm(4)=   0.000000  celldm(5)=   0.000000  celldm(6)=   0.000000

     crystal axes: (cart. coord. in units of alat)
               a(1) = (   0.000000   0.707107   0.707107 )  
               a(2) = (   0.707107   0.000000   0.707107 )  
               a(3) = (   0.707107   0.707107   0.000000 )  

     reciprocal axes: (cart. coord. in units 2 pi/alat)
               b(1) = ( -0.707107  0.707107  0.707107 )  
               b(2) = (  0.707107 -0.707107  0.707107 )  
               b(3) = (  0.707107  0.707107 -0.707107 )  


     PseudoPot. # 1 for Si read from file:
     ./Si.rel-pbe-n-kjpaw_psl.0.1.UPF
     MD5 check sum: 67eb1bc5c689d7b48afd963eedacb1f1
     Pseudo is Projector augmented-wave + core cor, Zval =  4.0
     Generated using "atomic" code by A. Dal Corso v.5.0.2 svn rev. 9415
     Shape of augmentation charge: PSQ
     Using radial grid of 1141 points,  6 beta functions with: 
                l(1) =   0
                l(2) =   0
                l(3) =   1
                l(4) =   1
                l(5) =   1
                l(6) =   1
     Q(r) pseudized with 0 coefficients 


     atomic species   valence    mass     pseudopotential
        Si             4.00    27.97693     Si( 1.00)

     12 Sym. Ops., with inversion, found



   Cartesian axes

     site n.     atom                  positions (alat units)
         1           Si  tau(   1) = (  -0.1767484  -0.1767484  -0.1767484  )
         2           Si  tau(   2) = (   0.1767484   0.1767484   0.1767484  )

     number of k points=   116

     Number of k-points >= 100: set verbosity='high' to print them.

     Dense  grid:     4477 G-vectors     FFT dimensions: (  24,  24,  24)

     Estimated max dynamical RAM per process >      57.47 MB

     Check: negative/imaginary core charge=   -0.000009    0.000000

     Initial potential from superposition of free atoms

     starting charge    7.99890, renormalised to    8.00000
     Starting wfcs are   16 randomized atomic wfcs +    4 random wfcs
     Checking if some PAW data can be deallocated... 

     total cpu time spent up to now is      186.5 secs

     Self-consistent Calculation

     iteration #  1     ecut=    20.00 Ry     beta= 0.70
     Davidson diagonalization with overlap
     c_bands:  1 eigenvalues not converged
     c_bands:  2 eigenvalues not converged
     c_bands:  2 eigenvalues not converged
     c_bands:  1 eigenvalues not converged
     c_bands:  1 eigenvalues not converged
     c_bands:  1 eigenvalues not converged
     c_bands:  1 eigenvalues not converged
     c_bands:  1 eigenvalues not converged
     c_bands:  1 eigenvalues not converged
     c_bands:  2 eigenvalues not converged
     c_bands:  2 eigenvalues not converged
     c_bands:  2 eigenvalues not converged
     c_bands:  1 eigenvalues not converged
     c_bands:  1 eigenvalues not converged
     c_bands:  1 eigenvalues not converged
     c_bands:  2 eigenvalues not converged
     c_bands:  1 eigenvalues not converged
     ethr =  1.00E-06,  avg # of iterations = 15.5

     total cpu time spent up to now is      214.0 secs

     total energy              =     -93.41336431 Ry
     Harris-Foulkes estimate   =     -93.41761649 Ry
     estimated scf accuracy    <       0.03468818 Ry

     iteration #  2     ecut=    20.00 Ry     beta= 0.70
     Davidson diagonalization with overlap
     ethr =  4.34E-04,  avg # of iterations =  1.0

     total cpu time spent up to now is      221.2 secs

     total energy              =     -93.41378366 Ry
     Harris-Foulkes estimate   =     -93.41392811 Ry
     estimated scf accuracy    <       0.00210037 Ry

     iteration #  3     ecut=    20.00 Ry     beta= 0.70
     Davidson diagonalization with overlap
     ethr =  2.63E-05,  avg # of iterations =  1.0

     total cpu time spent up to now is      228.4 secs

     total energy              =     -93.41381645 Ry
     Harris-Foulkes estimate   =     -93.41381414 Ry
     estimated scf accuracy    <       0.00001047 Ry

     iteration #  4     ecut=    20.00 Ry     beta= 0.70
     Davidson diagonalization with overlap
     ethr =  1.31E-07,  avg # of iterations =  2.4

     total cpu time spent up to now is      237.1 secs

     total energy              =     -93.41382012 Ry
     Harris-Foulkes estimate   =     -93.41381999 Ry
     estimated scf accuracy    <       0.00000015 Ry

     iteration #  5     ecut=    20.00 Ry     beta= 0.70
     Davidson diagonalization with overlap
     ethr =  1.87E-09,  avg # of iterations =  2.1

     total cpu time spent up to now is      245.8 secs

     total energy              =     -93.41382020 Ry
     Harris-Foulkes estimate   =     -93.41382020 Ry
     estimated scf accuracy    <       0.00000002 Ry

     iteration #  6     ecut=    20.00 Ry     beta= 0.70
     Davidson diagonalization with overlap
     ethr =  2.59E-10,  avg # of iterations =  2.0

     total cpu time spent up to now is      254.3 secs

     End of self-consistent calculation

     Number of k-points >= 100: set verbosity='high' to print the bands.

     highest occupied, lowest unoccupied level (ev):     3.4947    3.7661

!    total energy              =     -93.41382020 Ry
     Harris-Foulkes estimate   =     -93.41382020 Ry
     estimated scf accuracy    <          8.8E-11 Ry

     total all-electron energy =     -1160.095878 Ry

     The total energy is the sum of the following terms:

     one-electron contribution =       3.55554134 Ry
     hartree contribution      =       1.37964851 Ry
     xc contribution           =     -11.93628869 Ry
     ewald contribution        =     -15.20304391 Ry
     one-center paw contrib.   =     -71.20967746 Ry

     convergence has been achieved in   6 iterations

     Forces acting on atoms (cartesian axes, Ry/au):

     atom    1 type  1   force =    -0.00007224   -0.00007224   -0.00007224
     atom    2 type  1   force =     0.00007224    0.00007224    0.00007224

     Total force =     0.000177     Total SCF correction =     0.000000


     Computing stress (Cartesian axis) and pressure

     Message from routine stres:
     noncollinear stress + GGA not implemented

     Writing output data file qe.save/
 
     init_run     :     74.81s CPU      6.70s WALL (       2 calls)
     electrons    :   2722.42s CPU    243.18s WALL (       6 calls)
     update_pot   :     10.12s CPU      0.95s WALL (       4 calls)
     forces       :     23.76s CPU      2.08s WALL (       6 calls)

     Called by init_run:
     wfcinit      :     63.49s CPU      5.63s WALL (       2 calls)
     potinit      :      2.35s CPU      0.22s WALL (       2 calls)
     hinit0       :      8.64s CPU      0.81s WALL (       2 calls)

     Called by electrons:
     c_bands      :   2299.54s CPU    205.50s WALL (      24 calls)
     sum_band     :    410.10s CPU     36.55s WALL (      24 calls)
     v_of_rho     :      1.65s CPU      0.15s WALL (      28 calls)
     newd         :      1.89s CPU      0.17s WALL (      28 calls)
     PAW_pot      :     13.21s CPU      1.18s WALL (      32 calls)
     mix_rho      :      0.83s CPU      0.08s WALL (      24 calls)

     Called by c_bands:
     init_us_2    :     11.03s CPU      0.99s WALL (    6960 calls)
     cegterg      :   2256.71s CPU    201.69s WALL (    2784 calls)

     Called by sum_band:
     sum_band:bec :      9.75s CPU      0.86s WALL (    3248 calls)
     addusdens    :      1.26s CPU      0.17s WALL (      24 calls)

     Called by *egterg:
     h_psi        :   2063.83s CPU    184.60s WALL (   11241 calls)
     s_psi        :     12.53s CPU      1.13s WALL (   11241 calls)
     g_psi        :      3.71s CPU      0.33s WALL (    8225 calls)
     cdiaghg      :    107.32s CPU      9.53s WALL (   10313 calls)

     Called by h_psi:
     h_psi:pot    :   2059.03s CPU    184.15s WALL (   11241 calls)
     h_psi:calbec :     52.06s CPU      4.80s WALL (   11241 calls)
     vloc_psi     :   1989.21s CPU    177.79s WALL (   11241 calls)
     add_vuspsi   :     15.12s CPU      1.35s WALL (   11241 calls)

     General routines
     calbec       :     72.10s CPU      6.60s WALL (   17273 calls)
     fft          :      2.06s CPU      0.18s WALL (     458 calls)
     ffts         :      0.51s CPU      0.05s WALL (      96 calls)
     fftw         :   2032.03s CPU    181.99s WALL (  758280 calls)
 
     Parallel routines
 
     PWSCF        : 47m20.91s CPU     4m14.67s WALL

 
   This run was terminated on:  13:44:25   6Jul2020            

=------------------------------------------------------------------------------=
   JOB DONE.
=------------------------------------------------------------------------------=

Converting results to RKF
