

 Parallel Execution: Process Information
 ==============================================================================
 Rank   Node Name                              NodeID   MyNodeRank  NodeMaster
    0   ubuntu-kch                                0          0          0
    1   ubuntu-kch                                0          1         -1
    2   ubuntu-kch                                0          2         -1
    3   ubuntu-kch                                0          3         -1
 ==============================================================================


May use up to 7570MB of RAM as shared memory on node 0

 *******************************************************************************
 *                                                                             *
 *  --------------------------------                                           *
 *   Amsterdam Modeling Suite (AMS)              2021.105                      *
 *  --------------------------------                                           *
 *                                               r97261 2021-09-16             *
 *                                                                             *
 *                                                                             *
 *                              =================                              *
 *                              |               |                              *
 *                              |     A M S     |                              *
 *                              |               |                              *
 *                              =================                              *
 *                                                                             *
 *                                                                             *
 *   Online information and documentation:  https://www.scm.com/support/       *
 *   E-mail:  support@scm.com   info@scm.com                                   *
 *                                                                             *
 *   Scientific publications using AMS results must be properly referenced     *
 *   See the User Manuals (or the web site) for recommended citations          *
 *   The terms and conditions of the End User License Agreement apply to       *
 *   the use of AMS, https://www.scm.com/license-terms/                        *
 *                                                                             *
 **********************  x86_64_linux_intel / intelmpi  ************************
 
 Licensed to: Dr. Miroslav Ilias / Matej Bel University, Department Chemistry, Fac. Natural Sciences / Banska Bystrica / SLOVAKIA
 SCM User ID: u17848
  
 AMS 2021.105  RunTime: Dec02-2021 06:00:29  ShM Nodes: 1  Procs: 4

 AMS jobname: ams
 AMS jobid  : 575521925

 Start   directory: /home/milias/work/projects/open-collection/theoretical_chemistry/projects/nmr_diplomovky/derivaty_markerov/derivative_2_Peter/ams/sozora/basis_qz4p-j/tmp.milias.361989.0.noindex/
 Results directory: /home/milias/work/projects/open-collection/theoretical_chemistry/projects/nmr_diplomovky/derivaty_markerov/derivative_2_Peter/ams/sozora/basis_qz4p-j/der2.nmr_opbe_sozora_gnuc_qz4p-j_good_cosmo-chcl3.results/
 Scratch directory: /tmp/amstmp_ams_kid0.575521925/


 Communication costs MPI_COMM_WORLD:     -0.813 usec per message,   0.0106 usec per 8-byte item
 Communication costs for intra-node:     -0.002 usec per message,   0.0037 usec per 8-byte item

 RNG seed: -1418279078 -1315240133 -2137043428 1363485692 -505871828 -914424545 2086451169 -424169153



                      ************************************************************************
                      *  ADF 2021.105  RunTime: Dec02-2021 06:00:31  ShM Nodes: 1  Procs: 4  *
                      ************************************************************************
  
       ****************************
       * SINGLE POINT CALCULATION *
       ****************************
 
--------
Geometry
--------
Formula: C10H22NO3P
Atoms
  Index Symbol   x (angstrom)   y (angstrom)   z (angstrom)
      1      O     3.33194247     0.30076433     0.18997980       adf.R=1.517
      2      P     2.23021383    -0.17635009    -0.93134389       adf.R=1.850
      3      O     1.15541769     1.06054126    -1.02098848       adf.R=1.517
      4      O     1.28509071    -1.06367367     0.07655904       adf.R=1.517
      5      C     0.15386593     1.01230917     0.02556898       adf.R=1.700
      6      C    -0.04223155    -0.51587632     0.24191159       adf.R=1.700
      7      C     0.68996167     1.73050668     1.25612097       adf.R=1.700
      8      C    -1.07612091     1.72591223    -0.49879944       adf.R=1.700
      9      C    -0.93499380    -1.15443879    -0.81287378       adf.R=1.700
     10      C    -0.51951450    -0.88725938     1.63161892       adf.R=1.700
     11      H    -0.08611529     1.82662045     2.01796006       adf.R=1.350
     12      H     1.54872397     1.21389552     1.68228365       adf.R=1.350
     13      H     1.00690871     2.73257092     0.96345763       adf.R=1.350
     14      H    -1.38368287     1.33381637    -1.46683745       adf.R=1.350
     15      H    -1.90585789     1.62331790     0.20470993       adf.R=1.350
     16      H    -0.86006089     2.78906502    -0.61328307       adf.R=1.350
     17      H    -1.98060346    -0.87460462    -0.67392119       adf.R=1.350
     18      H    -0.62647710    -0.86686817    -1.81930413       adf.R=1.350
     19      H    -0.85435993    -2.23871336    -0.72763229       adf.R=1.350
     20      H    -1.49062997    -0.43003096     1.83620009       adf.R=1.350
     21      H    -0.63327131    -1.96982229     1.70217078       adf.R=1.350
     22      H     0.18934080    -0.56755742     2.39344924       adf.R=1.350
     23      C     4.63858536     0.63682575    -0.27581703       adf.R=1.700
     24      C     5.65910744    -0.04189931     0.61758736       adf.R=1.700
     25      N     7.01982260     0.31706240     0.26427138       adf.R=1.608
     26      C     7.37756692     1.63632439     0.74348147       adf.R=1.700
     27      H     7.72804477    -1.64758561     0.33878490       adf.R=1.350
     28      H     8.38576129     1.88714931     0.40860091       adf.R=1.350
     29      C     7.96417428    -0.66562242     0.75210192       adf.R=1.700
     30      H     4.77932917     0.31184336    -1.31232696       adf.R=1.350
     31      H     4.74176987     1.72438453    -0.24810683       adf.R=1.350
     32      H     5.54094432    -1.12140816     0.49865019       adf.R=1.350
     33      H     5.42773015     0.18977270     1.67238575       adf.R=1.350
     34      H     7.96883506    -0.74599892     1.85392689       adf.R=1.350
     35      H     7.35414508     1.70410721     1.84618401       adf.R=1.350
     36      H     6.70072305     2.39160952     0.34350965       adf.R=1.350
     37      H     8.97249936    -0.39674612     0.43094178       adf.R=1.350
 
Total System Charge             0.00000
Bonding info available!
 
 
----------------
ADF Engine Input
----------------
 
 Basis
 Type QZ4P-J
 Core None
 End
 Save TAPE10
 XC
 GGA OPBE
 End
 Relativity
 Level Spin-Orbit
 End
 Symmetry NOSYM
 Solvation
 Surf Delley
 Solv name=Chloroform cav0=0.0 cav1=0.0067639
 Charged method=CONJ
 C-Mat POT
 SCF VAR ALL
 CSMRSP
 End
 NumericalQuality Good
 NuclearModel Gaussian
 

 Title: *** (NO TITLE) ***

 *** adf ***



 ===========================
 A T T A C H E D   F I L E S
 ===========================
  



 ===============================
 M O D E L   P A R A M E T E R S
 ===============================
  
 DENSITY FUNCTIONAL POTENTIAL (scf)
    LDA:                               VWN                                      
    Gradient Corrections:              OPTX PBEc                               == Not Default ==

 SPIN  (restricted / unrestr.)
    Molecule:                          Restricted                               
    Fragments:                         Restricted                               

 OTHER ASPECTS
    Relativistic Corrections:          Spin-Orbit (ZORA,MAPA)                  == Not Default ==

    Nuclear Charge Density Model:      Gaussian Charge Distributions            *** SPECIAL ***
    Core Treatment:                    Frozen Orbital(s)                        

    Hyperfine or Zeeman Interaction:   ---                                      

 SOLVATION
-------------------------------------------

  The Delley construction of COSMO surface surface is calculated

       Division Level for Surface Triangles (NDIV)                  3
       Final Division Level for Triangles (NFDIV)                   1
       Radius of the Solvent (RSOL)                           3.17000 angstr
  Dielectric Constant (EPSL)                                  4.80000

       COSMO equation is solved iteratively-               conjugate-gradient

       Maximun of Iterations for Charges (NCIX)                  1000
       Criterion for Charge convergence (CCNV)                1.0E-08

  COSMO charges included variationally in SCF

       COSMO included at every SCF cycle

  Geometry-dependent empirical factor                         0.00000

  C-Matrix calculated in cspmtx

  In cspmtx, C-Matrix calculated using fitted potential

-------------------------------------------



 Fragment File(s)
 ----------------
 O:
         file : /home/milias/work/projects/open-collection/theoretical_chemistry/projects/nmr_diplomovky/derivaty_markerov/derivative_2_Peter/ams/sozora/basis_qz4p-j/der2.nmr_opbe_sozora_gnuc_qz4p-j_good_cosmo-chcl3.results/t21.5BB1A89B.O
         jobid: 0
         title: Oxygen (QZ4P-J)
 P:
         file : /home/milias/work/projects/open-collection/theoretical_chemistry/projects/nmr_diplomovky/derivaty_markerov/derivative_2_Peter/ams/sozora/basis_qz4p-j/der2.nmr_opbe_sozora_gnuc_qz4p-j_good_cosmo-chcl3.results/t21.458E779F.P
         jobid: 0
         title: Phosphorus (QZ4P-J)
 C:
         file : /home/milias/work/projects/open-collection/theoretical_chemistry/projects/nmr_diplomovky/derivaty_markerov/derivative_2_Peter/ams/sozora/basis_qz4p-j/der2.nmr_opbe_sozora_gnuc_qz4p-j_good_cosmo-chcl3.results/t21.6655D2C.C
         jobid: 0
         title: Carbon (QZ4P-J)
 H:
         file : /home/milias/work/projects/open-collection/theoretical_chemistry/projects/nmr_diplomovky/derivaty_markerov/derivative_2_Peter/ams/sozora/basis_qz4p-j/der2.nmr_opbe_sozora_gnuc_qz4p-j_good_cosmo-chcl3.results/t21.14D336E2.H
         jobid: 0
         title: Hydrogen (QZ4P-J)
 N:
         file : /home/milias/work/projects/open-collection/theoretical_chemistry/projects/nmr_diplomovky/derivaty_markerov/derivative_2_Peter/ams/sozora/basis_qz4p-j/der2.nmr_opbe_sozora_gnuc_qz4p-j_good_cosmo-chcl3.results/t21.28CDB978.N
         jobid: 0
         title: Nitrogen (QZ4P-J)



 ===============
 G E O M E T R Y  ***  3D  Molecule  ***
 ===============
  

 ATOMS
 =====                            X Y Z                    CHARGE                     RADIUS
                                (Angstrom)             Nucl     +Core       At.Mass (Angstrom)
                       --------------------------    ----------------       ------- ----------
    1  O               3.3319    0.3008    0.1900      8.00      8.00       15.9949    1.5170
    2  P               2.2302   -0.1764   -0.9313     15.00     15.00       30.9738    1.8500
    3  O               1.1554    1.0605   -1.0210      8.00      8.00       15.9949    1.5170
    4  O               1.2851   -1.0637    0.0766      8.00      8.00       15.9949    1.5170
    5  C               0.1539    1.0123    0.0256      6.00      6.00       12.0000    1.7000
    6  C              -0.0422   -0.5159    0.2419      6.00      6.00       12.0000    1.7000
    7  C               0.6900    1.7305    1.2561      6.00      6.00       12.0000    1.7000
    8  C              -1.0761    1.7259   -0.4988      6.00      6.00       12.0000    1.7000
    9  C              -0.9350   -1.1544   -0.8129      6.00      6.00       12.0000    1.7000
   10  C              -0.5195   -0.8873    1.6316      6.00      6.00       12.0000    1.7000
   11  H              -0.0861    1.8266    2.0180      1.00      1.00        1.0078    1.3500
   12  H               1.5487    1.2139    1.6823      1.00      1.00        1.0078    1.3500
   13  H               1.0069    2.7326    0.9635      1.00      1.00        1.0078    1.3500
   14  H              -1.3837    1.3338   -1.4668      1.00      1.00        1.0078    1.3500
   15  H              -1.9059    1.6233    0.2047      1.00      1.00        1.0078    1.3500
   16  H              -0.8601    2.7891   -0.6133      1.00      1.00        1.0078    1.3500
   17  H              -1.9806   -0.8746   -0.6739      1.00      1.00        1.0078    1.3500
   18  H              -0.6265   -0.8669   -1.8193      1.00      1.00        1.0078    1.3500
   19  H              -0.8544   -2.2387   -0.7276      1.00      1.00        1.0078    1.3500
   20  H              -1.4906   -0.4300    1.8362      1.00      1.00        1.0078    1.3500
   21  H              -0.6333   -1.9698    1.7022      1.00      1.00        1.0078    1.3500
   22  H               0.1893   -0.5676    2.3934      1.00      1.00        1.0078    1.3500
   23  C               4.6386    0.6368   -0.2758      6.00      6.00       12.0000    1.7000
   24  C               5.6591   -0.0419    0.6176      6.00      6.00       12.0000    1.7000
   25  N               7.0198    0.3171    0.2643      7.00      7.00       14.0031    1.6080
   26  C               7.3776    1.6363    0.7435      6.00      6.00       12.0000    1.7000
   27  H               7.7280   -1.6476    0.3388      1.00      1.00        1.0078    1.3500
   28  H               8.3858    1.8871    0.4086      1.00      1.00        1.0078    1.3500
   29  C               7.9642   -0.6656    0.7521      6.00      6.00       12.0000    1.7000
   30  H               4.7793    0.3118   -1.3123      1.00      1.00        1.0078    1.3500
   31  H               4.7418    1.7244   -0.2481      1.00      1.00        1.0078    1.3500
   32  H               5.5409   -1.1214    0.4987      1.00      1.00        1.0078    1.3500
   33  H               5.4277    0.1898    1.6724      1.00      1.00        1.0078    1.3500
   34  H               7.9688   -0.7460    1.8539      1.00      1.00        1.0078    1.3500
   35  H               7.3541    1.7041    1.8462      1.00      1.00        1.0078    1.3500
   36  H               6.7007    2.3916    0.3435      1.00      1.00        1.0078    1.3500
   37  H               8.9725   -0.3967    0.4309      1.00      1.00        1.0078    1.3500


 FRAGMENTS
 =========                                     Atoms in this Fragment     Cart. coord.s (Angstrom)
                                               -------------------------------------------------------
    1  O                                                 1  O            3.3319    0.3008    0.1900
    2  O                                                 3  O            1.1554    1.0605   -1.0210
    3  O                                                 4  O            1.2851   -1.0637    0.0766
    4  P                                                 2  P            2.2302   -0.1764   -0.9313
    5  C                                                 5  C            0.1539    1.0123    0.0256
    6  C                                                 6  C           -0.0422   -0.5159    0.2419
    7  C                                                 7  C            0.6900    1.7305    1.2561
    8  C                                                 8  C           -1.0761    1.7259   -0.4988
    9  C                                                 9  C           -0.9350   -1.1544   -0.8129
   10  C                                                10  C           -0.5195   -0.8873    1.6316
   11  C                                                23  C            4.6386    0.6368   -0.2758
   12  C                                                24  C            5.6591   -0.0419    0.6176
   13  C                                                26  C            7.3776    1.6363    0.7435
   14  C                                                29  C            7.9642   -0.6656    0.7521
   15  H                                                11  H           -0.0861    1.8266    2.0180
   16  H                                                12  H            1.5487    1.2139    1.6823
   17  H                                                13  H            1.0069    2.7326    0.9635
   18  H                                                14  H           -1.3837    1.3338   -1.4668
   19  H                                                15  H           -1.9059    1.6233    0.2047
   20  H                                                16  H           -0.8601    2.7891   -0.6133
   21  H                                                17  H           -1.9806   -0.8746   -0.6739
   22  H                                                18  H           -0.6265   -0.8669   -1.8193
   23  H                                                19  H           -0.8544   -2.2387   -0.7276
   24  H                                                20  H           -1.4906   -0.4300    1.8362
   25  H                                                21  H           -0.6333   -1.9698    1.7022
   26  H                                                22  H            0.1893   -0.5676    2.3934
   27  H                                                27  H            7.7280   -1.6476    0.3388
   28  H                                                28  H            8.3858    1.8871    0.4086
   29  H                                                30  H            4.7793    0.3118   -1.3123
   30  H                                                31  H            4.7418    1.7244   -0.2481
   31  H                                                32  H            5.5409   -1.1214    0.4987
   32  H                                                33  H            5.4277    0.1898    1.6724
   33  H                                                34  H            7.9688   -0.7460    1.8539
   34  H                                                35  H            7.3541    1.7041    1.8462
   35  H                                                36  H            6.7007    2.3916    0.3435
   36  H                                                37  H            8.9725   -0.3967    0.4309
   37  N                                                25  N            7.0198    0.3171    0.2643



 =====================================
 S Y M M E T R Y ,   E L E C T R O N S
 =====================================
  
 Symmetry: NOSYM

 Double Group Irreducible Representations (spinor symmetry)
 -----------------------------------------------------------
 A1/2


 Configuration of Valence Electrons
 ==================================
 ( determined in the SCF procedure )

 Total:   128

 Net Charge: 0 (Nuclei minus Electrons)

 Aufbau principle for MO occupations will be applied through SCF cycle no.     150
 Thereafter, the program will assign electrons to MOs that are spatially
 similar to the occupied MOs in a "reference" cycle ("KeepOrbitals").
 The reference cycle is always the PREVIOUS cycle: it will evolve with
 the SCF procedure.
1
 ***************************************************************************************************



                                      ****************************************
                                      *  B U I L D : (Fragments, Functions)  *
                                      ****************************************
  

 Total nr. of (C)SFOs (summation over all irreps) :  1929

 Specify PRINT SFO in the input file to get a full list

 Nr. of SFOs for ir.rep.           A :  1929



 ================================
 (Slater-type)  F U N C T I O N S  ***  (Basis and Fit)  ***
 ================================
  

 Atom Type    1  (O)
 ==============

 Valence Basis Sets:  27
 -----------------------
   1 S 4000.000000
   1 S  800.000000
   1 S  200.000000
   1 S   80.000000
   1 S   32.000000
   1 S   14.800000
   1 S    8.750000
   1 S    6.650000
   2 S    7.100000
   2 S    3.200000
   2 S    2.050000
   2 S    1.500000
   2 S    0.750000
   2 P   80.000000
   2 P   32.000000
   2 P   14.800000
   2 P    5.700000
   2 P    3.050000
   2 P    1.650000
   2 P    1.000000
   3 D   10.000000
   3 D    5.000000
   3 D    2.500000
   3 D    1.500000
   4 F    8.000000
   4 F    4.000000
   4 F    2.000000

 Atom Type    2  (P)
 ==============

 Valence Basis Sets:  33
 -----------------------
   1 S 7500.000000
   1 S 1500.000000
   1 S  375.000000
   1 S  120.000000
   1 S   48.700000
   1 S   17.800000
   1 S   13.350000
   2 S   14.000000
   2 S    5.950000
   2 S    4.250000
   3 S    3.300000
   3 S    2.750000
   3 S    1.800000
   3 S    1.250000
   2 P  120.000000
   2 P   48.700000
   2 P   17.800000
   2 P   10.250000
   2 P    5.900000
   2 P    3.800000
   3 P    3.250000
   3 P    2.250000
   3 P    1.350000
   3 P    0.850000
   3 D   20.000000
   3 D    8.000000
   3 D    4.000000
   3 D    2.000000
   3 D    1.000000
   4 F   12.500000
   4 F    5.000000
   4 F    2.500000
   4 F    1.250000

 Atom Type    3  (C)
 ==============

 Valence Basis Sets:  26
 -----------------------
   1 S 3000.000000
   1 S  600.000000
   1 S  150.000000
   1 S   60.000000
   1 S   24.000000
   1 S   11.400000
   1 S    6.600000
   1 S    4.850000
   2 S    5.900000
   2 S    2.550000
   2 S    1.650000
   2 S    1.160000
   2 P   60.000000
   2 P   24.000000
   2 P   11.400000
   2 P    5.150000
   2 P    2.400000
   2 P    1.300000
   2 P    0.780000
   3 D   10.000000
   3 D    5.000000
   3 D    2.500000
   3 D    1.500000
   4 F    8.000000
   4 F    4.000000
   4 F    2.000000

 Atom Type    4  (H)
 ==============

 Valence Basis Sets:  16
 -----------------------
   1 S  500.000000
   1 S  100.000000
   1 S   25.000000
   1 S    7.500000
   1 S    3.300000
   1 S    2.000000
   1 S    1.400000
   1 S    1.000000
   1 S    0.710000
   2 P   10.000000
   2 P    4.000000
   2 P    2.000000
   2 P    1.000000
   3 D    5.000000
   3 D    2.500000
   3 D    1.500000

 Atom Type    5  (N)
 ==============

 Valence Basis Sets:  27
 -----------------------
   1 S 3500.000000
   1 S  700.000000
   1 S  175.000000
   1 S   70.000000
   1 S   28.000000
   1 S   12.850000
   1 S    7.650000
   1 S    5.750000
   2 S    6.850000
   2 S    3.200000
   2 S    2.050000
   2 S    1.400000
   2 S    0.700000
   2 P   70.000000
   2 P   28.000000
   2 P   12.850000
   2 P    6.100000
   2 P    2.950000
   2 P    1.600000
   2 P    0.940000
   3 D   10.000000
   3 D    5.000000
   3 D    2.500000
   3 D    1.500000
   4 F    8.000000
   4 F    4.000000
   4 F    2.000000


 BAS: List of all Elementary Cartesian Basis Functions
 =====================================================

 The numbering in the list below (to the right of the function characteristics) is referred
 to in print-outs of MO eigenvectors and Mulliken populations in the BAS representation
 (as contrasted to the SFO representation).

 Notes:
 1. The functions are characterized by a polynomial prefactor (powers of x,y,z and r) and
    an exponential decay factor alpha.
 2. Since the basis sets are specific for an atom TYPE, the individual functions occur on
    all atoms of that type.
 3. The word 'Core' in the left margin signals that it is a Core Function (CF) : not a
    degree of freedom in the valence set, but only used to ensure orthogonalization of
    the other valence basis functions on the frozen Core Orbitals.


 (power of) X  Y  Z  R     Alpha  on Atom
            ==========     =====     ==========

 O                                    1    2    3
                                  ---------------------------------------------------------------------------
            0  0  0  0  4000.000      1   89  177
            0  0  0  0   800.000      2   90  178
            0  0  0  0   200.000      3   91  179
            0  0  0  0    80.000      4   92  180
            0  0  0  0    32.000      5   93  181
            0  0  0  0    14.800      6   94  182
            0  0  0  0     8.750      7   95  183
            0  0  0  0     6.650      8   96  184
            0  0  0  1     7.100      9   97  185
            0  0  0  1     3.200     10   98  186
            0  0  0  1     2.050     11   99  187
            0  0  0  1     1.500     12  100  188
            0  0  0  1     0.750     13  101  189
            1  0  0  0    80.000     14  102  190
            0  1  0  0    80.000     15  103  191
            0  0  1  0    80.000     16  104  192
            1  0  0  0    32.000     17  105  193
            0  1  0  0    32.000     18  106  194
            0  0  1  0    32.000     19  107  195
            1  0  0  0    14.800     20  108  196
            0  1  0  0    14.800     21  109  197
            0  0  1  0    14.800     22  110  198
            1  0  0  0     5.700     23  111  199
            0  1  0  0     5.700     24  112  200
            0  0  1  0     5.700     25  113  201
            1  0  0  0     3.050     26  114  202
            0  1  0  0     3.050     27  115  203
            0  0  1  0     3.050     28  116  204
            1  0  0  0     1.650     29  117  205
            0  1  0  0     1.650     30  118  206
            0  0  1  0     1.650     31  119  207
            1  0  0  0     1.000     32  120  208
            0  1  0  0     1.000     33  121  209
            0  0  1  0     1.000     34  122  210
            2  0  0  0    10.000     35  123  211
            1  1  0  0    10.000     36  124  212
            1  0  1  0    10.000     37  125  213
            0  2  0  0    10.000     38  126  214
            0  1  1  0    10.000     39  127  215
            0  0  2  0    10.000     40  128  216
            2  0  0  0     5.000     41  129  217
            1  1  0  0     5.000     42  130  218
            1  0  1  0     5.000     43  131  219
            0  2  0  0     5.000     44  132  220
            0  1  1  0     5.000     45  133  221
            0  0  2  0     5.000     46  134  222
            2  0  0  0     2.500     47  135  223
            1  1  0  0     2.500     48  136  224
            1  0  1  0     2.500     49  137  225
            0  2  0  0     2.500     50  138  226
            0  1  1  0     2.500     51  139  227
            0  0  2  0     2.500     52  140  228
            2  0  0  0     1.500     53  141  229
            1  1  0  0     1.500     54  142  230
            1  0  1  0     1.500     55  143  231
            0  2  0  0     1.500     56  144  232
            0  1  1  0     1.500     57  145  233
            0  0  2  0     1.500     58  146  234
            3  0  0  0     8.000     59  147  235
            2  1  0  0     8.000     60  148  236
            2  0  1  0     8.000     61  149  237
            1  2  0  0     8.000     62  150  238
            1  1  1  0     8.000     63  151  239
            1  0  2  0     8.000     64  152  240
            0  3  0  0     8.000     65  153  241
            0  2  1  0     8.000     66  154  242
            0  1  2  0     8.000     67  155  243
            0  0  3  0     8.000     68  156  244
            3  0  0  0     4.000     69  157  245
            2  1  0  0     4.000     70  158  246
            2  0  1  0     4.000     71  159  247
            1  2  0  0     4.000     72  160  248
            1  1  1  0     4.000     73  161  249
            1  0  2  0     4.000     74  162  250
            0  3  0  0     4.000     75  163  251
            0  2  1  0     4.000     76  164  252
            0  1  2  0     4.000     77  165  253
            0  0  3  0     4.000     78  166  254
            3  0  0  0     2.000     79  167  255
            2  1  0  0     2.000     80  168  256
            2  0  1  0     2.000     81  169  257
            1  2  0  0     2.000     82  170  258
            1  1  1  0     2.000     83  171  259
            1  0  2  0     2.000     84  172  260
            0  3  0  0     2.000     85  173  261
            0  2  1  0     2.000     86  174  262
            0  1  2  0     2.000     87  175  263
            0  0  3  0     2.000     88  176  264

 P                                    4
                                  ---------------------------------------------------------------------------
            0  0  0  0  7500.000    265
            0  0  0  0  1500.000    266
            0  0  0  0   375.000    267
            0  0  0  0   120.000    268
            0  0  0  0    48.700    269
            0  0  0  0    17.800    270
            0  0  0  0    13.350    271
            0  0  0  1    14.000    272
            0  0  0  1     5.950    273
            0  0  0  1     4.250    274
            0  0  0  2     3.300    275
            0  0  0  2     2.750    276
            0  0  0  2     1.800    277
            0  0  0  2     1.250    278
            1  0  0  0   120.000    279
            0  1  0  0   120.000    280
            0  0  1  0   120.000    281
            1  0  0  0    48.700    282
            0  1  0  0    48.700    283
            0  0  1  0    48.700    284
            1  0  0  0    17.800    285
            0  1  0  0    17.800    286
            0  0  1  0    17.800    287
            1  0  0  0    10.250    288
            0  1  0  0    10.250    289
            0  0  1  0    10.250    290
            1  0  0  0     5.900    291
            0  1  0  0     5.900    292
            0  0  1  0     5.900    293
            1  0  0  0     3.800    294
            0  1  0  0     3.800    295
            0  0  1  0     3.800    296
            1  0  0  1     3.250    297
            0  1  0  1     3.250    298
            0  0  1  1     3.250    299
            1  0  0  1     2.250    300
            0  1  0  1     2.250    301
            0  0  1  1     2.250    302
            1  0  0  1     1.350    303
            0  1  0  1     1.350    304
            0  0  1  1     1.350    305
            1  0  0  1     0.850    306
            0  1  0  1     0.850    307
            0  0  1  1     0.850    308
            2  0  0  0    20.000    309
            1  1  0  0    20.000    310
            1  0  1  0    20.000    311
            0  2  0  0    20.000    312
            0  1  1  0    20.000    313
            0  0  2  0    20.000    314
            2  0  0  0     8.000    315
            1  1  0  0     8.000    316
            1  0  1  0     8.000    317
            0  2  0  0     8.000    318
            0  1  1  0     8.000    319
            0  0  2  0     8.000    320
            2  0  0  0     4.000    321
            1  1  0  0     4.000    322
            1  0  1  0     4.000    323
            0  2  0  0     4.000    324
            0  1  1  0     4.000    325
            0  0  2  0     4.000    326
            2  0  0  0     2.000    327
            1  1  0  0     2.000    328
            1  0  1  0     2.000    329
            0  2  0  0     2.000    330
            0  1  1  0     2.000    331
            0  0  2  0     2.000    332
            2  0  0  0     1.000    333
            1  1  0  0     1.000    334
            1  0  1  0     1.000    335
            0  2  0  0     1.000    336
            0  1  1  0     1.000    337
            0  0  2  0     1.000    338
            3  0  0  0    12.500    339
            2  1  0  0    12.500    340
            2  0  1  0    12.500    341
            1  2  0  0    12.500    342
            1  1  1  0    12.500    343
            1  0  2  0    12.500    344
            0  3  0  0    12.500    345
            0  2  1  0    12.500    346
            0  1  2  0    12.500    347
            0  0  3  0    12.500    348
            3  0  0  0     5.000    349
            2  1  0  0     5.000    350
            2  0  1  0     5.000    351
            1  2  0  0     5.000    352
            1  1  1  0     5.000    353
            1  0  2  0     5.000    354
            0  3  0  0     5.000    355
            0  2  1  0     5.000    356
            0  1  2  0     5.000    357
            0  0  3  0     5.000    358
            3  0  0  0     2.500    359
            2  1  0  0     2.500    360
            2  0  1  0     2.500    361
            1  2  0  0     2.500    362
            1  1  1  0     2.500    363
            1  0  2  0     2.500    364
            0  3  0  0     2.500    365
            0  2  1  0     2.500    366
            0  1  2  0     2.500    367
            0  0  3  0     2.500    368
            3  0  0  0     1.250    369
            2  1  0  0     1.250    370
            2  0  1  0     1.250    371
            1  2  0  0     1.250    372
            1  1  1  0     1.250    373
            1  0  2  0     1.250    374
            0  3  0  0     1.250    375
            0  2  1  0     1.250    376
            0  1  2  0     1.250    377
            0  0  3  0     1.250    378

 C                                    5    6    7    8    9   10   11   12   13   14
                                  ---------------------------------------------------------------------------
            0  0  0  0  3000.000    379  466  553  640  727  814  901  988 1075 1162
            0  0  0  0   600.000    380  467  554  641  728  815  902  989 1076 1163
            0  0  0  0   150.000    381  468  555  642  729  816  903  990 1077 1164
            0  0  0  0    60.000    382  469  556  643  730  817  904  991 1078 1165
            0  0  0  0    24.000    383  470  557  644  731  818  905  992 1079 1166
            0  0  0  0    11.400    384  471  558  645  732  819  906  993 1080 1167
            0  0  0  0     6.600    385  472  559  646  733  820  907  994 1081 1168
            0  0  0  0     4.850    386  473  560  647  734  821  908  995 1082 1169
            0  0  0  1     5.900    387  474  561  648  735  822  909  996 1083 1170
            0  0  0  1     2.550    388  475  562  649  736  823  910  997 1084 1171
            0  0  0  1     1.650    389  476  563  650  737  824  911  998 1085 1172
            0  0  0  1     1.160    390  477  564  651  738  825  912  999 1086 1173
            1  0  0  0    60.000    391  478  565  652  739  826  913 1000 1087 1174
            0  1  0  0    60.000    392  479  566  653  740  827  914 1001 1088 1175
            0  0  1  0    60.000    393  480  567  654  741  828  915 1002 1089 1176
            1  0  0  0    24.000    394  481  568  655  742  829  916 1003 1090 1177
            0  1  0  0    24.000    395  482  569  656  743  830  917 1004 1091 1178
            0  0  1  0    24.000    396  483  570  657  744  831  918 1005 1092 1179
            1  0  0  0    11.400    397  484  571  658  745  832  919 1006 1093 1180
            0  1  0  0    11.400    398  485  572  659  746  833  920 1007 1094 1181
            0  0  1  0    11.400    399  486  573  660  747  834  921 1008 1095 1182
            1  0  0  0     5.150    400  487  574  661  748  835  922 1009 1096 1183
            0  1  0  0     5.150    401  488  575  662  749  836  923 1010 1097 1184
            0  0  1  0     5.150    402  489  576  663  750  837  924 1011 1098 1185
            1  0  0  0     2.400    403  490  577  664  751  838  925 1012 1099 1186
            0  1  0  0     2.400    404  491  578  665  752  839  926 1013 1100 1187
            0  0  1  0     2.400    405  492  579  666  753  840  927 1014 1101 1188
            1  0  0  0     1.300    406  493  580  667  754  841  928 1015 1102 1189
            0  1  0  0     1.300    407  494  581  668  755  842  929 1016 1103 1190
            0  0  1  0     1.300    408  495  582  669  756  843  930 1017 1104 1191
            1  0  0  0     0.780    409  496  583  670  757  844  931 1018 1105 1192
            0  1  0  0     0.780    410  497  584  671  758  845  932 1019 1106 1193
            0  0  1  0     0.780    411  498  585  672  759  846  933 1020 1107 1194
            2  0  0  0    10.000    412  499  586  673  760  847  934 1021 1108 1195
            1  1  0  0    10.000    413  500  587  674  761  848  935 1022 1109 1196
            1  0  1  0    10.000    414  501  588  675  762  849  936 1023 1110 1197
            0  2  0  0    10.000    415  502  589  676  763  850  937 1024 1111 1198
            0  1  1  0    10.000    416  503  590  677  764  851  938 1025 1112 1199
            0  0  2  0    10.000    417  504  591  678  765  852  939 1026 1113 1200
            2  0  0  0     5.000    418  505  592  679  766  853  940 1027 1114 1201
            1  1  0  0     5.000    419  506  593  680  767  854  941 1028 1115 1202
            1  0  1  0     5.000    420  507  594  681  768  855  942 1029 1116 1203
            0  2  0  0     5.000    421  508  595  682  769  856  943 1030 1117 1204
            0  1  1  0     5.000    422  509  596  683  770  857  944 1031 1118 1205
            0  0  2  0     5.000    423  510  597  684  771  858  945 1032 1119 1206
            2  0  0  0     2.500    424  511  598  685  772  859  946 1033 1120 1207
            1  1  0  0     2.500    425  512  599  686  773  860  947 1034 1121 1208
            1  0  1  0     2.500    426  513  600  687  774  861  948 1035 1122 1209
            0  2  0  0     2.500    427  514  601  688  775  862  949 1036 1123 1210
            0  1  1  0     2.500    428  515  602  689  776  863  950 1037 1124 1211
            0  0  2  0     2.500    429  516  603  690  777  864  951 1038 1125 1212
            2  0  0  0     1.500    430  517  604  691  778  865  952 1039 1126 1213
            1  1  0  0     1.500    431  518  605  692  779  866  953 1040 1127 1214
            1  0  1  0     1.500    432  519  606  693  780  867  954 1041 1128 1215
            0  2  0  0     1.500    433  520  607  694  781  868  955 1042 1129 1216
            0  1  1  0     1.500    434  521  608  695  782  869  956 1043 1130 1217
            0  0  2  0     1.500    435  522  609  696  783  870  957 1044 1131 1218
            3  0  0  0     8.000    436  523  610  697  784  871  958 1045 1132 1219
            2  1  0  0     8.000    437  524  611  698  785  872  959 1046 1133 1220
            2  0  1  0     8.000    438  525  612  699  786  873  960 1047 1134 1221
            1  2  0  0     8.000    439  526  613  700  787  874  961 1048 1135 1222
            1  1  1  0     8.000    440  527  614  701  788  875  962 1049 1136 1223
            1  0  2  0     8.000    441  528  615  702  789  876  963 1050 1137 1224
            0  3  0  0     8.000    442  529  616  703  790  877  964 1051 1138 1225
            0  2  1  0     8.000    443  530  617  704  791  878  965 1052 1139 1226
            0  1  2  0     8.000    444  531  618  705  792  879  966 1053 1140 1227
            0  0  3  0     8.000    445  532  619  706  793  880  967 1054 1141 1228
            3  0  0  0     4.000    446  533  620  707  794  881  968 1055 1142 1229
            2  1  0  0     4.000    447  534  621  708  795  882  969 1056 1143 1230
            2  0  1  0     4.000    448  535  622  709  796  883  970 1057 1144 1231
            1  2  0  0     4.000    449  536  623  710  797  884  971 1058 1145 1232
            1  1  1  0     4.000    450  537  624  711  798  885  972 1059 1146 1233
            1  0  2  0     4.000    451  538  625  712  799  886  973 1060 1147 1234
            0  3  0  0     4.000    452  539  626  713  800  887  974 1061 1148 1235
            0  2  1  0     4.000    453  540  627  714  801  888  975 1062 1149 1236
            0  1  2  0     4.000    454  541  628  715  802  889  976 1063 1150 1237
            0  0  3  0     4.000    455  542  629  716  803  890  977 1064 1151 1238
            3  0  0  0     2.000    456  543  630  717  804  891  978 1065 1152 1239
            2  1  0  0     2.000    457  544  631  718  805  892  979 1066 1153 1240
            2  0  1  0     2.000    458  545  632  719  806  893  980 1067 1154 1241
            1  2  0  0     2.000    459  546  633  720  807  894  981 1068 1155 1242
            1  1  1  0     2.000    460  547  634  721  808  895  982 1069 1156 1243
            1  0  2  0     2.000    461  548  635  722  809  896  983 1070 1157 1244
            0  3  0  0     2.000    462  549  636  723  810  897  984 1071 1158 1245
            0  2  1  0     2.000    463  550  637  724  811  898  985 1072 1159 1246
            0  1  2  0     2.000    464  551  638  725  812  899  986 1073 1160 1247
            0  0  3  0     2.000    465  552  639  726  813  900  987 1074 1161 1248

 H                                   15   16   17   18   19   20   21   22   23   24   25   26   27   28   29
                                     30   31   32   33   34   35   36
                                  ---------------------------------------------------------------------------
            0  0  0  0   500.000   1249 1288 1327 1366 1405 1444 1483 1522 1561 1600 1639 1678 1717 1756 1795
                                   1834 1873 1912 1951 1990 2029 2068
            0  0  0  0   100.000   1250 1289 1328 1367 1406 1445 1484 1523 1562 1601 1640 1679 1718 1757 1796
                                   1835 1874 1913 1952 1991 2030 2069
            0  0  0  0    25.000   1251 1290 1329 1368 1407 1446 1485 1524 1563 1602 1641 1680 1719 1758 1797
                                   1836 1875 1914 1953 1992 2031 2070
            0  0  0  0     7.500   1252 1291 1330 1369 1408 1447 1486 1525 1564 1603 1642 1681 1720 1759 1798
                                   1837 1876 1915 1954 1993 2032 2071
            0  0  0  0     3.300   1253 1292 1331 1370 1409 1448 1487 1526 1565 1604 1643 1682 1721 1760 1799
                                   1838 1877 1916 1955 1994 2033 2072
            0  0  0  0     2.000   1254 1293 1332 1371 1410 1449 1488 1527 1566 1605 1644 1683 1722 1761 1800
                                   1839 1878 1917 1956 1995 2034 2073
            0  0  0  0     1.400   1255 1294 1333 1372 1411 1450 1489 1528 1567 1606 1645 1684 1723 1762 1801
                                   1840 1879 1918 1957 1996 2035 2074
            0  0  0  0     1.000   1256 1295 1334 1373 1412 1451 1490 1529 1568 1607 1646 1685 1724 1763 1802
                                   1841 1880 1919 1958 1997 2036 2075
            0  0  0  0     0.710   1257 1296 1335 1374 1413 1452 1491 1530 1569 1608 1647 1686 1725 1764 1803
                                   1842 1881 1920 1959 1998 2037 2076
            1  0  0  0    10.000   1258 1297 1336 1375 1414 1453 1492 1531 1570 1609 1648 1687 1726 1765 1804
                                   1843 1882 1921 1960 1999 2038 2077
            0  1  0  0    10.000   1259 1298 1337 1376 1415 1454 1493 1532 1571 1610 1649 1688 1727 1766 1805
                                   1844 1883 1922 1961 2000 2039 2078
            0  0  1  0    10.000   1260 1299 1338 1377 1416 1455 1494 1533 1572 1611 1650 1689 1728 1767 1806
                                   1845 1884 1923 1962 2001 2040 2079
            1  0  0  0     4.000   1261 1300 1339 1378 1417 1456 1495 1534 1573 1612 1651 1690 1729 1768 1807
                                   1846 1885 1924 1963 2002 2041 2080
            0  1  0  0     4.000   1262 1301 1340 1379 1418 1457 1496 1535 1574 1613 1652 1691 1730 1769 1808
                                   1847 1886 1925 1964 2003 2042 2081
            0  0  1  0     4.000   1263 1302 1341 1380 1419 1458 1497 1536 1575 1614 1653 1692 1731 1770 1809
                                   1848 1887 1926 1965 2004 2043 2082
            1  0  0  0     2.000   1264 1303 1342 1381 1420 1459 1498 1537 1576 1615 1654 1693 1732 1771 1810
                                   1849 1888 1927 1966 2005 2044 2083
            0  1  0  0     2.000   1265 1304 1343 1382 1421 1460 1499 1538 1577 1616 1655 1694 1733 1772 1811
                                   1850 1889 1928 1967 2006 2045 2084
            0  0  1  0     2.000   1266 1305 1344 1383 1422 1461 1500 1539 1578 1617 1656 1695 1734 1773 1812
                                   1851 1890 1929 1968 2007 2046 2085
            1  0  0  0     1.000   1267 1306 1345 1384 1423 1462 1501 1540 1579 1618 1657 1696 1735 1774 1813
                                   1852 1891 1930 1969 2008 2047 2086
            0  1  0  0     1.000   1268 1307 1346 1385 1424 1463 1502 1541 1580 1619 1658 1697 1736 1775 1814
                                   1853 1892 1931 1970 2009 2048 2087
            0  0  1  0     1.000   1269 1308 1347 1386 1425 1464 1503 1542 1581 1620 1659 1698 1737 1776 1815
                                   1854 1893 1932 1971 2010 2049 2088
            2  0  0  0     5.000   1270 1309 1348 1387 1426 1465 1504 1543 1582 1621 1660 1699 1738 1777 1816
                                   1855 1894 1933 1972 2011 2050 2089
            1  1  0  0     5.000   1271 1310 1349 1388 1427 1466 1505 1544 1583 1622 1661 1700 1739 1778 1817
                                   1856 1895 1934 1973 2012 2051 2090
            1  0  1  0     5.000   1272 1311 1350 1389 1428 1467 1506 1545 1584 1623 1662 1701 1740 1779 1818
                                   1857 1896 1935 1974 2013 2052 2091
            0  2  0  0     5.000   1273 1312 1351 1390 1429 1468 1507 1546 1585 1624 1663 1702 1741 1780 1819
                                   1858 1897 1936 1975 2014 2053 2092
            0  1  1  0     5.000   1274 1313 1352 1391 1430 1469 1508 1547 1586 1625 1664 1703 1742 1781 1820
                                   1859 1898 1937 1976 2015 2054 2093
            0  0  2  0     5.000   1275 1314 1353 1392 1431 1470 1509 1548 1587 1626 1665 1704 1743 1782 1821
                                   1860 1899 1938 1977 2016 2055 2094
            2  0  0  0     2.500   1276 1315 1354 1393 1432 1471 1510 1549 1588 1627 1666 1705 1744 1783 1822
                                   1861 1900 1939 1978 2017 2056 2095
            1  1  0  0     2.500   1277 1316 1355 1394 1433 1472 1511 1550 1589 1628 1667 1706 1745 1784 1823
                                   1862 1901 1940 1979 2018 2057 2096
            1  0  1  0     2.500   1278 1317 1356 1395 1434 1473 1512 1551 1590 1629 1668 1707 1746 1785 1824
                                   1863 1902 1941 1980 2019 2058 2097
            0  2  0  0     2.500   1279 1318 1357 1396 1435 1474 1513 1552 1591 1630 1669 1708 1747 1786 1825
                                   1864 1903 1942 1981 2020 2059 2098
            0  1  1  0     2.500   1280 1319 1358 1397 1436 1475 1514 1553 1592 1631 1670 1709 1748 1787 1826
                                   1865 1904 1943 1982 2021 2060 2099
            0  0  2  0     2.500   1281 1320 1359 1398 1437 1476 1515 1554 1593 1632 1671 1710 1749 1788 1827
                                   1866 1905 1944 1983 2022 2061 2100
            2  0  0  0     1.500   1282 1321 1360 1399 1438 1477 1516 1555 1594 1633 1672 1711 1750 1789 1828
                                   1867 1906 1945 1984 2023 2062 2101
            1  1  0  0     1.500   1283 1322 1361 1400 1439 1478 1517 1556 1595 1634 1673 1712 1751 1790 1829
                                   1868 1907 1946 1985 2024 2063 2102
            1  0  1  0     1.500   1284 1323 1362 1401 1440 1479 1518 1557 1596 1635 1674 1713 1752 1791 1830
                                   1869 1908 1947 1986 2025 2064 2103
            0  2  0  0     1.500   1285 1324 1363 1402 1441 1480 1519 1558 1597 1636 1675 1714 1753 1792 1831
                                   1870 1909 1948 1987 2026 2065 2104
            0  1  1  0     1.500   1286 1325 1364 1403 1442 1481 1520 1559 1598 1637 1676 1715 1754 1793 1832
                                   1871 1910 1949 1988 2027 2066 2105
            0  0  2  0     1.500   1287 1326 1365 1404 1443 1482 1521 1560 1599 1638 1677 1716 1755 1794 1833
                                   1872 1911 1950 1989 2028 2067 2106

 N                                   37
                                  ---------------------------------------------------------------------------
            0  0  0  0  3500.000   2107
            0  0  0  0   700.000   2108
            0  0  0  0   175.000   2109
            0  0  0  0    70.000   2110
            0  0  0  0    28.000   2111
            0  0  0  0    12.850   2112
            0  0  0  0     7.650   2113
            0  0  0  0     5.750   2114
            0  0  0  1     6.850   2115
            0  0  0  1     3.200   2116
            0  0  0  1     2.050   2117
            0  0  0  1     1.400   2118
            0  0  0  1     0.700   2119
            1  0  0  0    70.000   2120
            0  1  0  0    70.000   2121
            0  0  1  0    70.000   2122
            1  0  0  0    28.000   2123
            0  1  0  0    28.000   2124
            0  0  1  0    28.000   2125
            1  0  0  0    12.850   2126
            0  1  0  0    12.850   2127
            0  0  1  0    12.850   2128
            1  0  0  0     6.100   2129
            0  1  0  0     6.100   2130
            0  0  1  0     6.100   2131
            1  0  0  0     2.950   2132
            0  1  0  0     2.950   2133
            0  0  1  0     2.950   2134
            1  0  0  0     1.600   2135
            0  1  0  0     1.600   2136
            0  0  1  0     1.600   2137
            1  0  0  0     0.940   2138
            0  1  0  0     0.940   2139
            0  0  1  0     0.940   2140
            2  0  0  0    10.000   2141
            1  1  0  0    10.000   2142
            1  0  1  0    10.000   2143
            0  2  0  0    10.000   2144
            0  1  1  0    10.000   2145
            0  0  2  0    10.000   2146
            2  0  0  0     5.000   2147
            1  1  0  0     5.000   2148
            1  0  1  0     5.000   2149
            0  2  0  0     5.000   2150
            0  1  1  0     5.000   2151
            0  0  2  0     5.000   2152
            2  0  0  0     2.500   2153
            1  1  0  0     2.500   2154
            1  0  1  0     2.500   2155
            0  2  0  0     2.500   2156
            0  1  1  0     2.500   2157
            0  0  2  0     2.500   2158
            2  0  0  0     1.500   2159
            1  1  0  0     1.500   2160
            1  0  1  0     1.500   2161
            0  2  0  0     1.500   2162
            0  1  1  0     1.500   2163
            0  0  2  0     1.500   2164
            3  0  0  0     8.000   2165
            2  1  0  0     8.000   2166
            2  0  1  0     8.000   2167
            1  2  0  0     8.000   2168
            1  1  1  0     8.000   2169
            1  0  2  0     8.000   2170
            0  3  0  0     8.000   2171
            0  2  1  0     8.000   2172
            0  1  2  0     8.000   2173
            0  0  3  0     8.000   2174
            3  0  0  0     4.000   2175
            2  1  0  0     4.000   2176
            2  0  1  0     4.000   2177
            1  2  0  0     4.000   2178
            1  1  1  0     4.000   2179
            1  0  2  0     4.000   2180
            0  3  0  0     4.000   2181
            0  2  1  0     4.000   2182
            0  1  2  0     4.000   2183
            0  0  3  0     4.000   2184
            3  0  0  0     2.000   2185
            2  1  0  0     2.000   2186
            2  0  1  0     2.000   2187
            1  2  0  0     2.000   2188
            1  1  1  0     2.000   2189
            1  0  2  0     2.000   2190
            0  3  0  0     2.000   2191
            0  2  1  0     2.000   2192
            0  1  2  0     2.000   2193
            0  0  3  0     2.000   2194

 Total number of charge fitting functions (nprimf)      5109
 Total number of Cartesian basis functions (naos)       2194
 Total number of Cartesian core functions  (ncos)          0

1
 ***************************************************************************************************



                                              ***********************
                                              *  T E C H N I C A L  *
                                              ***********************
  



 =============================================================
 P A R A L L E L I Z A T I O N  and  V E C T O R I Z A T I O N
 =============================================================
  
 Nr of parallel processes:                                4
 Maximum vector length in NumInt loops:                 128



 =====================
 S C F   U P D A T E S
 =====================
  
 Max. nr. of cycles:                               300
 Convergence criterion:                              0.0000010000
   secondary criterion:                              0.0010000000

 Mix parameter (when DIIS does not apply):           0.2000000000
 Mixed ADIIS+SDIIS will be used                  
    Max number of expansion vectors:                10
    Pure ADIIS when Max([F,P]) is above              0.1000000000
    Pure SDIIS when Max([F,P]) is below              0.0010000000
 Automatic ElectronSmearing (in case of problematic SCF convergence) disabled



 =================
 P R E C I S I O N  ***  (General: NumInt, NeglectFunctionTails, ...)  ***
 =================
  

 NumInt:           Target precision:                 6.0000000000
 -------           Initial precision:                6.0000000000
                   Min. precision (optimization):    6.0000000000

 Neglect Functions:          Basis functions:        0.1000000000E-07
 ------------------          Fit functions:          0.1000000000E-07



 ===========================
 L I N E A R   S C A L I N G
 ===========================
  

 Cut-off radii density fit:                        0.1000000000E-09
 Overlap cut-off criterion AO matrix elements:     0.1000000000E-07
 Cut-offs for Coulomb potential and fitted density:0.1000000000E-09
 Cut-off criterion for Coulomb multipole terms:    0.1000000000E-09
 Progressive Convergence parameter:                 0.000000000    
1
 ***************************************************************************************************



                                            ***************************
                                            *  C O M P U T A T I O N  *
                                            ***************************
  



 ==============================
 Double group spinor symmetries  ***  (Spin-Orbit)  ***
 ==============================
  

 The double group Lowdins are spinors adapted to the irreducible representations
 of the double group. These double group Lowdins are linear combinations of
 products of the single group Lowdins and the spinfunctions. The single group
 Lowdins are  orthonormalized symmetrized fragment orbitals (SFOs).
 The complex coefficients that are used in the linear combinations are also
 known as Clebsch-Gordan coefficients.
 The spin functions (alpha,beta) span irrep e1/2


          A * e 1/2 :      A1/2

  A1/2:1 = A.alpha
  A1/2:1 = A.beta

 The table summarizes which one-electron orbital irreps (single group) couple
 with spin to which spinor irreps (double group).
 The Clebsch-Gordan series for each direct product: orbital irrep times e1/2.
                  A
            -------
  A1/2           X


 dimension (equal to the max. nr. of electrons per spinor) of the double group irreps
 ------------------------------------------------------------------------------------
  A1/2           1

 Number of elements of the density matrix on this node (used, total):    604841   2407915

 The calculation MAY be unreliable as a result of near linear dependency in the basis.
 Tested is the smallest eigenvalue of the overlap matrix of the basis functions:    0.62801E-05
 Experience shows that such a small value may result in loss of accuracy. Check the
 results of your calculation. If the SCF fit error and the orbital energies look fine,
 your results are reliable. If not, you may consider using the key DEPENDENCY in INPUT.



 ===========================================
 Numerical Integration : Fuzzy Cells (Becke)
 ===========================================
  
 Becke grid quality: GOOD           
  
 Lebedev angular grid order:             min:  11 max:  31
 Nr. of radial points:                   min: 167 max: 331

 Total nr. of points:    1669883
 Nr. of blocks:            13046
 Block length:               128
 Nr. of dummy points:          5


 Test of Precision of the Numerical Integration Grid
 ===================================================

 Integral of the Total Core Density:                   0.00000000000000


 -------------------------------------------
  COSMO surface
  Area             =          975.552
  Volume           =         2038.757
  Number of Points =         2296
 -------------------------------------------



 ========================
 Density Fitting (zlmFit)
 ========================
  
 ZlmFit Fit Quality: GOOD           
  
 Max L-expansion:                        min:   8 max:   9
 Nr. of radial interpolation points:     min: 270 max: 492



 =====
 S C F  ***  ScaSCF  ***
 =====
  
 Initial density matrix is calculated as sum of fragments

 CYCLE    1
 SCF Error: norm([F,P])=     14.404701617987, max([F,P])=      1.077050659116
 orbitals (Q,E):
 ---------------
 A1/2 :119...138     ( 1.00    -0.4389)  ( 1.00    -0.4389)  ( 1.00    -0.4174)  ( 1.00    -0.4174)
                     ( 1.00    -0.3984)  ( 1.00    -0.3984)  ( 1.00    -0.3629)  ( 1.00    -0.3629)
                     ( 1.00    -0.3079)  ( 1.00    -0.3079)  ( 0.00    -0.0949)  ( 0.00    -0.0949)
                     ( 0.00    -0.0942)  ( 0.00    -0.0942)  ( 0.00    -0.0791)  ( 0.00    -0.0791)
                     ( 0.00    -0.0756)  ( 0.00    -0.0756)  ( 0.00    -0.0697)  ( 0.00    -0.0697)

 CYCLE    2
   MIX coefficients:  0.8000  0.2000
 SCF Error: norm([F,P])=      1.123990241875, max([F,P])=      0.097226322826
 orbitals (Q,E):
 ---------------
 A1/2 :119...138     ( 1.00    -0.3823)  ( 1.00    -0.3823)  ( 1.00    -0.3577)  ( 1.00    -0.3577)
                     ( 1.00    -0.3368)  ( 1.00    -0.3368)  ( 1.00    -0.2955)  ( 1.00    -0.2955)
                     ( 1.00    -0.2824)  ( 1.00    -0.2824)  ( 0.00    -0.0705)  ( 0.00    -0.0705)
                     ( 0.00    -0.0528)  ( 0.00    -0.0528)  ( 0.00    -0.0484)  ( 0.00    -0.0484)
                     ( 0.00    -0.0456)  ( 0.00    -0.0456)  ( 0.00    -0.0302)  ( 0.00    -0.0302)

 CYCLE    3
  SDIIS (wt  0.000): -1.0551  2.0551
 A-DIIS (wt  1.000):  0.0000  1.0000
  DIIS coefficients:  0.0000  1.0000
 SCF Error: norm([F,P])=      0.607862213082, max([F,P])=      0.050962260715
 orbitals (Q,E):
 ---------------
 A1/2 :119...138     ( 1.00    -0.2039)  ( 1.00    -0.2039)  ( 1.00    -0.1847)  ( 1.00    -0.1847)
                     ( 1.00    -0.1706)  ( 1.00    -0.1706)  ( 1.00    -0.1560)  ( 1.00    -0.1560)
                     ( 1.00    -0.1066)  ( 1.00    -0.1066)  ( 0.00    -0.0007)  ( 0.00    -0.0007)
                     ( 0.00     0.0018)  ( 0.00     0.0018)  ( 0.00     0.0062)  ( 0.00     0.0062)
                     ( 0.00     0.0177)  ( 0.00     0.0177)  ( 0.00     0.0220)  ( 0.00     0.0220)

 CYCLE    4
  SDIIS (wt  0.000):  0.1759  0.3638  0.4603
 A-DIIS (wt  1.000):  0.0000  0.6643  0.3357
  DIIS coefficients:  0.0000  0.6643  0.3357
 SCF Error: norm([F,P])=      0.901613343919, max([F,P])=      0.082448387771
 orbitals (Q,E):
 ---------------
 A1/2 :119...138     ( 1.00    -0.2686)  ( 1.00    -0.2686)  ( 1.00    -0.2483)  ( 1.00    -0.2483)
                     ( 1.00    -0.2290)  ( 1.00    -0.2290)  ( 1.00    -0.2052)  ( 1.00    -0.2052)
                     ( 1.00    -0.1793)  ( 1.00    -0.1793)  ( 0.00    -0.0114)  ( 0.00    -0.0114)
                     ( 0.00    -0.0085)  ( 0.00    -0.0085)  ( 0.00    -0.0045)  ( 0.00    -0.0045)
                     ( 0.00     0.0086)  ( 0.00     0.0086)  ( 0.00     0.0135)  ( 0.00     0.0135)

 CYCLE    5
  SDIIS (wt  0.883):  0.0801  0.1535  0.1340  0.6324
 A-DIIS (wt  0.117):  0.0000  0.0000  0.0000  1.0000
  DIIS coefficients:  0.0708  0.1356  0.1184  0.6753
 SCF Error: norm([F,P])=      0.137914904638, max([F,P])=      0.012547833082
 orbitals (Q,E):
 ---------------
 A1/2 :119...138     ( 1.00    -0.2778)  ( 1.00    -0.2778)  ( 1.00    -0.2545)  ( 1.00    -0.2545)
                     ( 1.00    -0.2350)  ( 1.00    -0.2350)  ( 1.00    -0.2112)  ( 1.00    -0.2112)
                     ( 1.00    -0.1822)  ( 1.00    -0.1822)  ( 0.00    -0.0160)  ( 0.00    -0.0160)
                     ( 0.00    -0.0121)  ( 0.00    -0.0121)  ( 0.00    -0.0084)  ( 0.00    -0.0084)
                     ( 0.00     0.0049)  ( 0.00     0.0049)  ( 0.00     0.0101)  ( 0.00     0.0101)

 CYCLE    6
  SDIIS (wt  0.932):  0.0163  0.0434  0.0125  0.4201  0.5077
 A-DIIS (wt  0.068):  0.0000  0.0000  0.0000  0.1828  0.8172
  DIIS coefficients:  0.0152  0.0405  0.0116  0.4040  0.5286
 SCF Error: norm([F,P])=      0.075730180186, max([F,P])=      0.007705666070
 orbitals (Q,E):
 ---------------
 A1/2 :119...138     ( 1.00    -0.2779)  ( 1.00    -0.2779)  ( 1.00    -0.2566)  ( 1.00    -0.2566)
                     ( 1.00    -0.2368)  ( 1.00    -0.2368)  ( 1.00    -0.2131)  ( 1.00    -0.2131)
                     ( 1.00    -0.1848)  ( 1.00    -0.1848)  ( 0.00    -0.0165)  ( 0.00    -0.0165)
                     ( 0.00    -0.0121)  ( 0.00    -0.0121)  ( 0.00    -0.0083)  ( 0.00    -0.0083)
                     ( 0.00     0.0047)  ( 0.00     0.0047)  ( 0.00     0.0099)  ( 0.00     0.0099)

 CYCLE    7
  SDIIS (wt  0.983): -0.0083  0.0221 -0.0075  0.1547  0.2673  0.5717
 A-DIIS (wt  0.017):  0.0000  0.0000  0.0000  0.0000  0.0000  1.0000
  DIIS coefficients: -0.0082  0.0217 -0.0074  0.1521  0.2629  0.5788
 SCF Error: norm([F,P])=      0.017248477355, max([F,P])=      0.002649602254
 orbitals (Q,E):
 ---------------
 A1/2 :119...138     ( 1.00    -0.2778)  ( 1.00    -0.2778)  ( 1.00    -0.2552)  ( 1.00    -0.2552)
                     ( 1.00    -0.2359)  ( 1.00    -0.2359)  ( 1.00    -0.2113)  ( 1.00    -0.2113)
                     ( 1.00    -0.1846)  ( 1.00    -0.1846)  ( 0.00    -0.0155)  ( 0.00    -0.0155)
                     ( 0.00    -0.0123)  ( 0.00    -0.0123)  ( 0.00    -0.0085)  ( 0.00    -0.0085)
                     ( 0.00     0.0047)  ( 0.00     0.0047)  ( 0.00     0.0098)  ( 0.00     0.0098)

 CYCLE    8
  SDIIS (wt  0.996):  0.0015 -0.0025 -0.0031  0.0454  0.1001  0.3764  0.4821
 A-DIIS (wt  0.004):  0.0000  0.0000  0.0000  0.0000  0.0000  0.2286  0.7714
  DIIS coefficients:  0.0015 -0.0025 -0.0030  0.0452  0.0998  0.3759  0.4832
 SCF Error: norm([F,P])=      0.008743894376, max([F,P])=      0.001383593521
 orbitals (Q,E):
 ---------------
 A1/2 :119...138     ( 1.00    -0.2777)  ( 1.00    -0.2777)  ( 1.00    -0.2557)  ( 1.00    -0.2557)
                     ( 1.00    -0.2360)  ( 1.00    -0.2360)  ( 1.00    -0.2118)  ( 1.00    -0.2118)
                     ( 1.00    -0.1844)  ( 1.00    -0.1844)  ( 0.00    -0.0157)  ( 0.00    -0.0157)
                     ( 0.00    -0.0123)  ( 0.00    -0.0123)  ( 0.00    -0.0085)  ( 0.00    -0.0085)
                     ( 0.00     0.0047)  ( 0.00     0.0047)  ( 0.00     0.0098)  ( 0.00     0.0098)

 CYCLE    9
  SDIIS (wt  1.000):  0.0019 -0.0040 -0.0010  0.0115  0.0317  0.1652  0.2989  0.4958
  DIIS coefficients:  0.0019 -0.0040 -0.0010  0.0115  0.0317  0.1652  0.2989  0.4958
 SCF Error: norm([F,P])=      0.002607248051, max([F,P])=      0.000309745672
 orbitals (Q,E):
 ---------------
 A1/2 :119...138     ( 1.00    -0.2777)  ( 1.00    -0.2777)  ( 1.00    -0.2557)  ( 1.00    -0.2557)
                     ( 1.00    -0.2362)  ( 1.00    -0.2362)  ( 1.00    -0.2119)  ( 1.00    -0.2119)
                     ( 1.00    -0.1845)  ( 1.00    -0.1845)  ( 0.00    -0.0158)  ( 0.00    -0.0158)
                     ( 0.00    -0.0123)  ( 0.00    -0.0123)  ( 0.00    -0.0085)  ( 0.00    -0.0085)
                     ( 0.00     0.0046)  ( 0.00     0.0046)  ( 0.00     0.0098)  ( 0.00     0.0098)

 CYCLE   10
  SDIIS (wt  1.000):  0.0003 -0.0012 -0.0002 -0.0019 -0.0007  0.0219  0.0871  0.3155  0.5791
  DIIS coefficients:  0.0003 -0.0012 -0.0002 -0.0019 -0.0007  0.0219  0.0871  0.3155  0.5791
 SCF Error: norm([F,P])=      0.001043014013, max([F,P])=      0.000152333122
 orbitals (Q,E):
 ---------------
 A1/2 :119...138     ( 1.00    -0.2777)  ( 1.00    -0.2777)  ( 1.00    -0.2557)  ( 1.00    -0.2557)
                     ( 1.00    -0.2361)  ( 1.00    -0.2361)  ( 1.00    -0.2119)  ( 1.00    -0.2119)
                     ( 1.00    -0.1845)  ( 1.00    -0.1845)  ( 0.00    -0.0158)  ( 0.00    -0.0158)
                     ( 0.00    -0.0123)  ( 0.00    -0.0123)  ( 0.00    -0.0085)  ( 0.00    -0.0085)
                     ( 0.00     0.0046)  ( 0.00     0.0046)  ( 0.00     0.0098)  ( 0.00     0.0098)

 CYCLE   11
  SDIIS (wt  1.000):  0.0002 -0.0006  0.0000 -0.0019 -0.0025 -0.0006  0.0260  0.1401  0.3192  0.5200
  DIIS coefficients:  0.0002 -0.0006  0.0000 -0.0019 -0.0025 -0.0006  0.0260  0.1401  0.3192  0.5200
 SCF Error: norm([F,P])=      0.000296170146, max([F,P])=      0.000026500696
 orbitals (Q,E):
 ---------------
 A1/2 :119...138     ( 1.00    -0.2777)  ( 1.00    -0.2777)  ( 1.00    -0.2557)  ( 1.00    -0.2557)
                     ( 1.00    -0.2361)  ( 1.00    -0.2361)  ( 1.00    -0.2118)  ( 1.00    -0.2118)
                     ( 1.00    -0.1845)  ( 1.00    -0.1845)  ( 0.00    -0.0158)  ( 0.00    -0.0158)
                     ( 0.00    -0.0123)  ( 0.00    -0.0123)  ( 0.00    -0.0085)  ( 0.00    -0.0085)
                     ( 0.00     0.0046)  ( 0.00     0.0046)  ( 0.00     0.0098)  ( 0.00     0.0098)

 CYCLE   12
  SDIIS (wt  1.000): -0.0001  0.0000 -0.0007 -0.0009 -0.0020  0.0049  0.0390  0.0961  0.2465  0.6172
  DIIS coefficients: -0.0001  0.0000 -0.0007 -0.0009 -0.0020  0.0049  0.0390  0.0961  0.2465  0.6172
 SCF Error: norm([F,P])=      0.000071164270, max([F,P])=      0.000007178914
 orbitals (Q,E):
 ---------------
 A1/2 :119...138     ( 1.00    -0.2777)  ( 1.00    -0.2777)  ( 1.00    -0.2557)  ( 1.00    -0.2557)
                     ( 1.00    -0.2361)  ( 1.00    -0.2361)  ( 1.00    -0.2118)  ( 1.00    -0.2118)
                     ( 1.00    -0.1845)  ( 1.00    -0.1845)  ( 0.00    -0.0158)  ( 0.00    -0.0158)
                     ( 0.00    -0.0123)  ( 0.00    -0.0123)  ( 0.00    -0.0085)  ( 0.00    -0.0085)
                     ( 0.00     0.0046)  ( 0.00     0.0046)  ( 0.00     0.0098)  ( 0.00     0.0098)

 CYCLE   13
  SDIIS (wt  1.000):  0.0000 -0.0001 -0.0001 -0.0009 -0.0004  0.0036  0.0113  0.0678  0.3176  0.6011
  DIIS coefficients:  0.0000 -0.0001 -0.0001 -0.0009 -0.0004  0.0036  0.0113  0.0678  0.3176  0.6011
 SCF Error: norm([F,P])=      0.000024947536, max([F,P])=      0.000003381012
 orbitals (Q,E):
 ---------------
 A1/2 :119...138     ( 1.00    -0.2777)  ( 1.00    -0.2777)  ( 1.00    -0.2557)  ( 1.00    -0.2557)
                     ( 1.00    -0.2361)  ( 1.00    -0.2361)  ( 1.00    -0.2118)  ( 1.00    -0.2118)
                     ( 1.00    -0.1845)  ( 1.00    -0.1845)  ( 0.00    -0.0158)  ( 0.00    -0.0158)
                     ( 0.00    -0.0123)  ( 0.00    -0.0123)  ( 0.00    -0.0085)  ( 0.00    -0.0085)
                     ( 0.00     0.0046)  ( 0.00     0.0046)  ( 0.00     0.0098)  ( 0.00     0.0098)

 CYCLE   14
  SDIIS (wt  1.000):  0.0000  0.0000 -0.0001 -0.0004 -0.0010 -0.0017  0.0138  0.1121  0.3436  0.5337
  DIIS coefficients:  0.0000  0.0000 -0.0001 -0.0004 -0.0010 -0.0017  0.0138  0.1121  0.3436  0.5337
 SCF Error: norm([F,P])=      0.000010410604, max([F,P])=      0.000001344556
 orbitals (Q,E):
 ---------------
 A1/2 :119...138     ( 1.00    -0.2777)  ( 1.00    -0.2777)  ( 1.00    -0.2557)  ( 1.00    -0.2557)
                     ( 1.00    -0.2361)  ( 1.00    -0.2361)  ( 1.00    -0.2118)  ( 1.00    -0.2118)
                     ( 1.00    -0.1845)  ( 1.00    -0.1845)  ( 0.00    -0.0158)  ( 0.00    -0.0158)
                     ( 0.00    -0.0123)  ( 0.00    -0.0123)  ( 0.00    -0.0085)  ( 0.00    -0.0085)
                     ( 0.00     0.0046)  ( 0.00     0.0046)  ( 0.00     0.0098)  ( 0.00     0.0098)

 CYCLE   15
  SDIIS (wt  1.000):  0.0000 -0.0001 -0.0002 -0.0007 -0.0012  0.0039  0.0418  0.1468  0.3201  0.4896
  DIIS coefficients:  0.0000 -0.0001 -0.0002 -0.0007 -0.0012  0.0039  0.0418  0.1468  0.3201  0.4896
 SCF Error: norm([F,P])=      0.000004012451, max([F,P])=      0.000000492604
 orbitals (Q,E):
 ---------------
 A1/2 :119...138     ( 1.00    -0.2777)  ( 1.00    -0.2777)  ( 1.00    -0.2557)  ( 1.00    -0.2557)
                     ( 1.00    -0.2361)  ( 1.00    -0.2361)  ( 1.00    -0.2118)  ( 1.00    -0.2118)
                     ( 1.00    -0.1845)  ( 1.00    -0.1845)  ( 0.00    -0.0158)  ( 0.00    -0.0158)
                     ( 0.00    -0.0123)  ( 0.00    -0.0123)  ( 0.00    -0.0085)  ( 0.00    -0.0085)
                     ( 0.00     0.0046)  ( 0.00     0.0046)  ( 0.00     0.0098)  ( 0.00     0.0098)

 SCF CONVERGED
 cosmo_calcen: 0.5 (esolb+esolc) (Hartrees) =   -0.008434

 Solvation energy (screening term,uncorrected) =     -5.292670 kcal/mol

 Solvation energy (dispersion and cavitation terms) =      1.462825 kcal/mol
 Solvation Energy Contributions (Hartrees)
          esola   esolb+esolc
     0.00843441   -0.01686881
 esol last cycle   -0.00843441

 CYCLE   16
1
 ***************************************************************************************************



                                                *******************
                                                *  R E S U L T S  *
                                                *******************
  
 *** Using FIT density in Focky
  SDIIS (wt  1.000): -0.0000 -0.0001 -0.0003 -0.0006 -0.0000  0.0082  0.0363  0.1148  0.3014  0.5403
  DIIS coefficients: -0.0000 -0.0001 -0.0003 -0.0006 -0.0000  0.0082  0.0363  0.1148  0.3014  0.5403
 SCF Error: norm([F,P])=      0.000001490334, max([F,P])=      0.000000194479

 Scaled ZORA Orbital Energies, per Irrep and Spin:
 =================================================
                        Occup              E (au)              E (eV)       Diff (eV) with prev. cycle
                        -----      --------------------        ------       --------------------------
 A1/2
             119        1.000     -0.27771305360946E+00        -7.557              -1.25E-06
             120        1.000     -0.27771305360453E+00        -7.557              -1.25E-06
             121        1.000     -0.25567597884227E+00        -6.957              -1.82E-06
             122        1.000     -0.25567597884207E+00        -6.957              -1.83E-06
             123        1.000     -0.23609687246741E+00        -6.425              -1.04E-06
             124        1.000     -0.23609687246738E+00        -6.425              -1.04E-06
             125        1.000     -0.21183418012350E+00        -5.764              -1.88E-06
             126        1.000     -0.21183418012216E+00        -5.764              -1.88E-06
             127        1.000     -0.18448763636305E+00        -5.020               2.00E-06
             128        1.000     -0.18448763623425E+00        -5.020               2.00E-06
             129        0.000     -0.15777057548286E-01        -0.429
             130        0.000     -0.15777057541386E-01        -0.429
             131        0.000     -0.12289534110514E-01        -0.334
             132        0.000     -0.12289534102397E-01        -0.334
             133        0.000     -0.84889864857451E-02        -0.231
             134        0.000     -0.84889864607486E-02        -0.231
             135        0.000      0.46437734578709E-02         0.126
             136        0.000      0.46437734641419E-02         0.126
             137        0.000      0.97775261330466E-02         0.266
             138        0.000      0.97775261360423E-02         0.266
  
 HOMO :      128 A1/2             -0.18448763623425E+00
 LUMO :      129 A1/2             -0.15777057548286E-01
  
 cosmo_calcen: 0.5 (esolb+esolc) (Hartrees) =   -0.008434

 Solvation energy (screening term,uncorrected) =     -5.292673 kcal/mol

 Solvation energy (dispersion and cavitation terms) =      1.462825 kcal/mol
 Solvation Energy Contributions (Hartrees)
          esola   esolb+esolc
     0.00843441   -0.01686882
 esol last cycle   -0.00843441


 All Electron Calculation, thus no Orbital Energies of the Core Orbitals are calculated


 Fit test: (difference of exact and fit density, squared integrated, result summed over spins)
         Sum-of-Fragments:                             0.00000000003698
         Orthogonalized Fragments:                     0.00004821749593
         SCF:                                          0.00010558302710



 ==========================
 Electron Density at Nuclei
 ==========================
  
 The electron density is calculated at points on a small sphere around the center of a nucleus.
 The printed electron density is the average electron density on these points.
 The radius of the sphere is the printed approximate finite nuclear radius.
 Note: ZORA-4 density is used, which includes small component density

         Atom        Nuclear Radius (Angstrom)             Electron Density (a.u.)
         ----        -------------------------             -----------------------
     1)   O                 0.0000345546                              319.06911
     2)   P                 0.0000412627                             2379.36998
     3)   O                 0.0000345546                              319.15550
     4)   O                 0.0000345546                              319.09429
     5)   C                 0.0000320678                              128.14341
     6)   C                 0.0000320678                              128.14629
     7)   C                 0.0000320678                              128.11185
     8)   C                 0.0000320678                              128.10681
     9)   C                 0.0000320678                              128.11587
    10)   C                 0.0000320678                              128.10563
    11)   H                 0.0000181514                                0.48042
    12)   H                 0.0000181514                                0.48156
    13)   H                 0.0000181514                                0.48043
    14)   H                 0.0000181514                                0.48191
    15)   H                 0.0000181514                                0.47884
    16)   H                 0.0000181514                                0.48032
    17)   H                 0.0000181514                                0.48042
    18)   H                 0.0000181514                                0.48112
    19)   H                 0.0000181514                                0.48031
    20)   H                 0.0000181514                                0.47868
    21)   H                 0.0000181514                                0.48037
    22)   H                 0.0000181514                                0.48191
    23)   C                 0.0000320678                              128.13292
    24)   C                 0.0000320678                              128.12456
    25)   N                 0.0000333706                              208.73669
    26)   C                 0.0000320678                              128.11361
    27)   H                 0.0000181514                                0.48473
    28)   H                 0.0000181514                                0.48433
    29)   C                 0.0000320678                              128.11834
    30)   H                 0.0000181514                                0.48584
    31)   H                 0.0000181514                                0.49108
    32)   H                 0.0000181514                                0.48748
    33)   H                 0.0000181514                                0.48189
    34)   H                 0.0000181514                                0.48004
    35)   H                 0.0000181514                                0.47945
    36)   H                 0.0000181514                                0.48630
    37)   H                 0.0000181514                                0.48460



 =======================================
 M U L L I K E N   P O P U L A T I O N S
 =======================================
  
 The survey below gives for each atom:
 a) the total charge (Z minus electrons)
 b) the net spin polarization (nr of electrons spin-A minus spin-B)
 c) for each spin the atomic electron valence density (integrated) per L-value.

 Atom              Charge    Spin density          S         P         D         F
 ----              ------    ------------       ------    ------    ------    ------
 1 O              -0.6074                       4.0288    4.4700    0.0913    0.0173
 2 P               1.5815                       5.2331    7.4808    0.6045    0.1001
 3 O              -0.7992                       3.8677    4.8107    0.1036    0.0172
 4 O              -0.7374                       3.8258    4.7880    0.1063    0.0172
 5 C               0.7511                       2.7985    1.9550    0.4255    0.0699
 6 C               0.8297                       2.7894    1.8814    0.4289    0.0706
 7 C              -0.7281                       2.4416    4.0706    0.1954    0.0206
 8 C              -0.8054                       2.4454    4.1473    0.1916    0.0211
 9 C              -0.8339                       2.4976    4.1159    0.1997    0.0206
 10 C             -0.8228                       2.4449    4.1671    0.1900    0.0208
 11 H              0.1602                       0.5742    0.2355    0.0301    0.0000
 12 H              0.1862                       0.5397    0.2420    0.0320    0.0000
 13 H              0.1390                       0.6144    0.2181    0.0284    0.0000
 14 H              0.1761                       0.5520    0.2420    0.0299    0.0000
 15 H              0.1956                       0.5372    0.2371    0.0301    0.0000
 16 H              0.1459                       0.6053    0.2203    0.0285    0.0000
 17 H              0.2129                       0.5293    0.2286    0.0292    0.0000
 18 H              0.2134                       0.5208    0.2353    0.0305    0.0000
 19 H              0.1411                       0.6104    0.2204    0.0281    0.0000
 20 H              0.1955                       0.5381    0.2358    0.0305    0.0000
 21 H              0.1508                       0.5998    0.2208    0.0286    0.0000
 22 H              0.1787                       0.5474    0.2435    0.0304    0.0000
 23 C             -0.4795                       2.3823    3.7205    0.3324    0.0442
 24 C             -0.1114                       2.4443    3.3320    0.2972    0.0380
 25 N             -0.1406                       3.3557    3.5380    0.2095    0.0374
 26 C             -0.6551                       2.3347    4.0420    0.2536    0.0248
 27 H              0.2524                       0.5296    0.1960    0.0220    0.0000
 28 H              0.2410                       0.5354    0.1992    0.0245    0.0000
 29 C             -0.8012                       2.3676    4.1621    0.2464    0.0252
 30 H              0.2920                       0.4212    0.2527    0.0341    0.0000
 31 H              0.1800                       0.5298    0.2564    0.0338    0.0000
 32 H              0.1499                       0.5750    0.2416    0.0335    0.0000
 33 H              0.2215                       0.4441    0.2949    0.0396    0.0000
 34 H              0.1905                       0.5729    0.2145    0.0221    0.0000
 35 H              0.2021                       0.5594    0.2164    0.0221    0.0000
 36 H              0.2261                       0.5437    0.2062    0.0241    0.0000
[...]
  

 Nuclear magnetogyric ratios / 1E7 radians/(s T):
 O  (  1):    -3.628
 O  (  2):    -3.628
 O  (  3):    -3.628
 P  (  4):    10.841
 C  (  5):     6.728
 C  (  6):     6.728
 C  (  7):     6.728
 C  (  8):     6.728
 C  (  9):     6.728
 C  ( 10):     6.728
 C  ( 11):     6.728
 C  ( 12):     6.728
 C  ( 13):     6.728
 C  ( 14):     6.728
 H  ( 15):    26.752
 H  ( 16):    26.752
 H  ( 17):    26.752
 H  ( 18):    26.752
 H  ( 19):    26.752
 H  ( 20):    26.752
 H  ( 21):    26.752
 H  ( 22):    26.752
 H  ( 23):    26.752
 H  ( 24):    26.752
 H  ( 25):    26.752
 H  ( 26):    26.752
 H  ( 27):    26.752
 H  ( 28):    26.752
 H  ( 29):    26.752
 H  ( 30):    26.752
 H  ( 31):    26.752
 H  ( 32):    26.752
 H  ( 33):    26.752
 H  ( 34):    26.752
 H  ( 35):    26.752
 H  ( 36):    26.752
 N  ( 37):     1.934

 Performing the following coupling computations:
 Nucleus   4 (P ) perturbing 
          11 (C ) responding
          12 (C ) responding
          29 (H ) responding
          30 (H ) responding
          31 (H ) responding
          32 (H ) responding



 =============================================
 Computation for perturbing ADF-GUI atom: P(2)
 =============================================
  
 
 *** running ZSO and/or ZPSO calculation
     computing
     ... basis integrals for perturbing nucleus   4
     ... basis integrals for responding nucleus  11
     ... basis integrals for responding nucleus  12
     ... basis integrals for responding nucleus  29
     ... basis integrals for responding nucleus  30
     ... basis integrals for responding nucleus  31
     ... basis integrals for responding nucleus  32
     transforming
     ... basis integrals for perturbing nucleus   4
     ... basis integrals for responding nucleus  11
     ... basis integrals for responding nucleus  12
     ... basis integrals for responding nucleus  29
     ... basis integrals for responding nucleus  30
     ... basis integrals for responding nucleus  31
     ... basis integrals for responding nucleus  32



 ==================================
 SCF routine for spin-spin coupling  ***  Version 11/07 (spinorbit)  ***
 ==================================
  
 Using new AO based algorithms for CPKS
    using first order VWN potential for LDA kernel
 
    Will use LDA kernel
 
 iter.  1 V(1) measurement   0.6472742E+01  0.6517522E+01  0.6522776E+01
 iter.  2 V(1) measurement   0.1018103E+02  0.1034832E+02  0.1038642E+02
        2            delta   0.3708293E+01  0.3830803E+01  0.3863642E+01
 iter.  3 V(1) measurement   0.1021411E+02  0.1039433E+02  0.1042686E+02
        3            delta   0.3307609E-01  0.4600184E-01  0.4043716E-01
 iter.  4 V(1) measurement   0.1021483E+02  0.1039560E+02  0.1042800E+02
        4            delta   0.7183221E-03  0.1270643E-02  0.1142733E-02
 iter.  5 V(1) measurement   0.1021486E+02  0.1039564E+02  0.1042804E+02
        5            delta   0.3116903E-04  0.4669672E-04  0.4148501E-04
 *** convergence reached



                                                *******************
                                                *  R E S U L T S  *
                                                *******************
  



 ========================================
  Nucleus 4 (P) perturbing nucleus 11 (C)
 ========================================
  
 Internal CPL numbering of atoms:  P(4) perturbing  C(11)
 ADF-GUI atoms:  P(2) perturbing  C(23)
  
 ---------------------------------
   Cartesian Axis Representation  
 ---------------------------------

 ----- k (10^19 kg m-2 s-2 A-2) ----         ------------- j (hz) -------------

 ZORA FC+SD spin contribution (+ PSO cross terms):                       
  isotropic    k=      23.744                              j=      29.069
      23.159       0.529       2.582             28.353       0.647       3.161
       0.628      24.270       1.926              0.768      29.713       2.358
       2.927       1.850      23.803              3.583       2.265      29.141

 total calculated spin-spin coupling:                                    
  isotropic    k=      23.744                              j=      29.069
      23.159       0.529       2.582             28.353       0.647       3.161
       0.628      24.270       1.926              0.768      29.713       2.358
       2.927       1.850      23.803              3.583       2.265      29.141
 
 ---------------------------------
   Principal Axis Representation  
 ---------------------------------

 ----- k (10^19 kg m-2 s-2 A-2) ----         ------------- j (hz) -------------

 ZORA FC+SD spin contribution (+ PSO cross terms):                       
  isotropic    k=      23.744                              j=      29.069
      20.497       0.075      -0.132             25.094       0.092      -0.162
      -0.075      23.396       0.103             -0.092      28.642       0.126
       0.132      -0.103      27.340              0.162      -0.126      33.471

 total calculated spin-spin coupling:                                    
  isotropic    k=      23.744                              j=      29.069
      20.497       0.075      -0.132             25.094       0.092      -0.162
      -0.075      23.396       0.103             -0.092      28.642       0.126
       0.132      -0.103      27.340              0.162      -0.126      33.471
 
 Principal Axis System (u,v,w) expressed in Cartesians:
 (taken as eigenvectors of the symmetric part of the coupling tensor,
  sorted in ascending order of eigenvalues = principal values)
        u         v         w
       -0.670     0.530    -0.520
       -0.247    -0.820    -0.516
        0.700     0.217    -0.681



 ========================================
  Nucleus 4 (P) perturbing nucleus 12 (C)
 ========================================
  
 Internal CPL numbering of atoms:  P(4) perturbing  C(12)
 ADF-GUI atoms:  P(2) perturbing  C(24)
  
 ---------------------------------
   Cartesian Axis Representation  
 ---------------------------------

 ----- k (10^19 kg m-2 s-2 A-2) ----         ------------- j (hz) -------------

 ZORA FC+SD spin contribution (+ PSO cross terms):                       
  isotropic    k=       3.922                              j=       4.801
       3.665      -0.114       1.139              4.486      -0.140       1.394
       0.003       4.021      -0.019              0.004       4.922      -0.023
       1.284      -0.063       4.080              1.571      -0.077       4.994

 total calculated spin-spin coupling:                                    
  isotropic    k=       3.922                              j=       4.801
       3.665      -0.114       1.139              4.486      -0.140       1.394
       0.003       4.021      -0.019              0.004       4.922      -0.023
       1.284      -0.063       4.080              1.571      -0.077       4.994
 
 ---------------------------------
   Principal Axis Representation  
 ---------------------------------

 ----- k (10^19 kg m-2 s-2 A-2) ----         ------------- j (hz) -------------

 ZORA FC+SD spin contribution (+ PSO cross terms):                       
  isotropic    k=       3.922                              j=       4.801
       2.643      -0.035      -0.070              3.236      -0.043      -0.085
       0.035       4.017       0.055              0.043       4.917       0.068
       0.070      -0.055       5.105              0.085      -0.068       6.250

 total calculated spin-spin coupling:                                    
  isotropic    k=       3.922                              j=       4.801
       2.643      -0.035      -0.070              3.236      -0.043      -0.085
       0.035       4.017       0.055              0.043       4.917       0.068
       0.070      -0.055       5.105              0.085      -0.068       6.250
 
 Principal Axis System (u,v,w) expressed in Cartesians:
 (taken as eigenvectors of the symmetric part of the coupling tensor,
  sorted in ascending order of eigenvalues = principal values)
        u         v         w
        0.765     0.031     0.644
        0.012     0.998    -0.062
       -0.644     0.055     0.763



 ========================================
  Nucleus 4 (P) perturbing nucleus 29 (H)
 ========================================
  
 Internal CPL numbering of atoms:  P(4) perturbing  H(29)
 ADF-GUI atoms:  P(2) perturbing  H(30)
  
 ---------------------------------
   Cartesian Axis Representation  
 ---------------------------------

 ----- k (10^19 kg m-2 s-2 A-2) ----         ------------- j (hz) -------------

 ZORA FC+SD spin contribution (+ PSO cross terms):                       
  isotropic    k=       3.017                              j=      14.687
       2.494       0.290       1.069             12.138       1.413       5.202
       0.312       2.794       0.554              1.519      13.600       2.698
       1.187       0.542       3.764              5.780       2.636      18.324

 total calculated spin-spin coupling:                                    
  isotropic    k=       3.017                              j=      14.687
       2.494       0.290       1.069             12.138       1.413       5.202
       0.312       2.794       0.554              1.519      13.600       2.698
       1.187       0.542       3.764              5.780       2.636      18.324
 
 ---------------------------------
   Principal Axis Representation  
 ---------------------------------

 ----- k (10^19 kg m-2 s-2 A-2) ----         ------------- j (hz) -------------

 ZORA FC+SD spin contribution (+ PSO cross terms):                       
  isotropic    k=       3.017                              j=      14.687
       1.834       0.013       0.058              8.927       0.064       0.282
      -0.013       2.582      -0.012             -0.064      12.569      -0.059
      -0.058       0.012       4.636             -0.282       0.059      22.566

 total calculated spin-spin coupling:                                    
  isotropic    k=       3.017                              j=      14.687
       1.834       0.013       0.058              8.927       0.064       0.282
      -0.013       2.582      -0.012             -0.064      12.569      -0.059
      -0.058       0.012       4.636             -0.282       0.059      22.566
 
 Principal Axis System (u,v,w) expressed in Cartesians:
 (taken as eigenvectors of the symmetric part of the coupling tensor,
  sorted in ascending order of eigenvalues = principal values)
        u         v         w
       -0.861     0.180     0.476
       -0.020    -0.947     0.321
        0.509     0.267     0.819



 ========================================
  Nucleus 4 (P) perturbing nucleus 30 (H)
 ========================================
  
 Internal CPL numbering of atoms:  P(4) perturbing  H(30)
 ADF-GUI atoms:  P(2) perturbing  H(31)
  
 ---------------------------------
   Cartesian Axis Representation  
 ---------------------------------

 ----- k (10^19 kg m-2 s-2 A-2) ----         ------------- j (hz) -------------

 ZORA FC+SD spin contribution (+ PSO cross terms):                       
  isotropic    k=       0.209                              j=       1.019
      -0.235      -0.523       0.243             -1.145      -2.546       1.182
      -0.491       0.472      -0.118             -2.390       2.300      -0.577
       0.355      -0.021       0.391              1.729      -0.101       1.903

 total calculated spin-spin coupling:                                    
  isotropic    k=       0.209                              j=       1.019
      -0.235      -0.523       0.243             -1.145      -2.546       1.182
      -0.491       0.472      -0.118             -2.390       2.300      -0.577
       0.355      -0.021       0.391              1.729      -0.101       1.903
 
 ---------------------------------
   Principal Axis Representation  
 ---------------------------------

 ----- k (10^19 kg m-2 s-2 A-2) ----         ------------- j (hz) -------------

 ZORA FC+SD spin contribution (+ PSO cross terms):                       
  isotropic    k=       0.209                              j=       1.019
      -0.559      -0.073      -0.014             -2.719      -0.356      -0.070
       0.073       0.351      -0.016              0.356       1.709      -0.076
       0.014       0.016       0.836              0.070       0.076       4.068

 total calculated spin-spin coupling:                                    
  isotropic    k=       0.209                              j=       1.019
      -0.559      -0.073      -0.014             -2.719      -0.356      -0.070
       0.073       0.351      -0.016              0.356       1.709      -0.076
       0.014       0.016       0.836              0.070       0.076       4.068
 
 Principal Axis System (u,v,w) expressed in Cartesians:
 (taken as eigenvectors of the symmetric part of the coupling tensor,
  sorted in ascending order of eigenvalues = principal values)
        u         v         w
        0.876     0.003     0.482
        0.414     0.506    -0.757
       -0.246     0.863     0.442



 ========================================
  Nucleus 4 (P) perturbing nucleus 31 (H)
 ========================================
  
 Internal CPL numbering of atoms:  P(4) perturbing  H(31)
 ADF-GUI atoms:  P(2) perturbing  H(32)
  
 ---------------------------------
   Cartesian Axis Representation  
 ---------------------------------

 ----- k (10^19 kg m-2 s-2 A-2) ----         ------------- j (hz) -------------

 ZORA FC+SD spin contribution (+ PSO cross terms):                       
  isotropic    k=      -0.106                              j=      -0.516
      -0.349       0.107       0.058             -1.697       0.519       0.283
       0.127      -0.006      -0.015              0.616      -0.030      -0.075
       0.104      -0.040       0.037              0.508      -0.192       0.181

 total calculated spin-spin coupling:                                    
  isotropic    k=      -0.106                              j=      -0.516
      -0.349       0.107       0.058             -1.697       0.519       0.283
       0.127      -0.006      -0.015              0.616      -0.030      -0.075
       0.104      -0.040       0.037              0.508      -0.192       0.181
 
 ---------------------------------
   Principal Axis Representation  
 ---------------------------------

 ----- k (10^19 kg m-2 s-2 A-2) ----         ------------- j (hz) -------------

 ZORA FC+SD spin contribution (+ PSO cross terms):                       
  isotropic    k=      -0.106                              j=      -0.516
      -0.401      -0.011      -0.025             -1.954      -0.055      -0.120
       0.011       0.029       0.007              0.055       0.144       0.032
       0.025      -0.007       0.054              0.120      -0.032       0.264

 total calculated spin-spin coupling:                                    
  isotropic    k=      -0.106                              j=      -0.516
      -0.401      -0.011      -0.025             -1.954      -0.055      -0.120
       0.011       0.029       0.007              0.055       0.144       0.032
       0.025      -0.007       0.054              0.120      -0.032       0.264
 
 Principal Axis System (u,v,w) expressed in Cartesians:
 (taken as eigenvectors of the symmetric part of the coupling tensor,
  sorted in ascending order of eigenvalues = principal values)
        u         v         w
        0.938     0.311     0.155
       -0.290     0.946    -0.146
       -0.192     0.092     0.977



 ========================================
  Nucleus 4 (P) perturbing nucleus 32 (H)
 ========================================
  
 Internal CPL numbering of atoms:  P(4) perturbing  H(32)
 ADF-GUI atoms:  P(2) perturbing  H(33)
  
 ---------------------------------
   Cartesian Axis Representation  
 ---------------------------------

 ----- k (10^19 kg m-2 s-2 A-2) ----         ------------- j (hz) -------------

 ZORA FC+SD spin contribution (+ PSO cross terms):                       
  isotropic    k=      -0.094                              j=      -0.457
      -0.303      -0.066      -0.075             -1.475      -0.319      -0.367
      -0.013      -0.068       0.098             -0.062      -0.331       0.478
      -0.043       0.033       0.089             -0.209       0.160       0.436

 total calculated spin-spin coupling:                                    
  isotropic    k=      -0.094                              j=      -0.457
      -0.303      -0.066      -0.075             -1.475      -0.319      -0.367
      -0.013      -0.068       0.098             -0.062      -0.331       0.478
      -0.043       0.033       0.089             -0.209       0.160       0.436
 
 ---------------------------------
   Principal Axis Representation  
 ---------------------------------

 ----- k (10^19 kg m-2 s-2 A-2) ----         ------------- j (hz) -------------

 ZORA FC+SD spin contribution (+ PSO cross terms):                       
  isotropic    k=      -0.094                              j=      -0.457
      -0.315       0.024      -0.022             -1.535       0.117      -0.109
      -0.024      -0.090      -0.031             -0.117      -0.440      -0.150
       0.022       0.031       0.124              0.109       0.150       0.605

 total calculated spin-spin coupling:                                    
  isotropic    k=      -0.094                              j=      -0.457
      -0.315       0.024      -0.022             -1.535       0.117      -0.109
      -0.024      -0.090      -0.031             -0.117      -0.440      -0.150
       0.022       0.031       0.124              0.109       0.150       0.605
 
 Principal Axis System (u,v,w) expressed in Cartesians:
 (taken as eigenvectors of the symmetric part of the coupling tensor,
  sorted in ascending order of eigenvalues = principal values)
        u         v         w
        0.985     0.071    -0.160
        0.123    -0.930     0.347
        0.124     0.362     0.924
 *******************************************************************************

                             N M R   E X I T
 NORMAL TERMINATION



 =================
 Timing Statistics
 =================
  
 Total Used :                     CPU=    10447.14      System=       47.34     Elapsed=    13139.34

 Calls  Section                     ( Mean, Percentage )
 ---------------------------------------------------------------------------------------------------
     3  ><      ................      0.00    0.00             0.00    0.00             0.00    0.00
     1  GENPT   ................     14.78    0.14             1.32    2.80            17.05    0.13
     1  RDEIGZ  ................      2.33    0.02             0.26    0.55             2.89    0.02
     7  CALBSO  ................    778.73   52.18             2.55   37.68           981.17   52.27
     7  TRBSO   ................     12.43    0.83             1.92   28.40            19.88    1.06
     7  TRAOMO  ................      0.00    0.00             0.01    0.09             0.01    0.00
     1  SOPT1   ................   4891.92   46.83            14.25   30.10          6111.71   46.51
     1  SOCPL   ................      0.00    0.00             0.01    0.02             0.01    0.00
     1  EXIT PROCEDURE .........      0.00    0.00             0.18    0.37             0.31    0.00


 Currently Open Files (EXIT00)
 ====================

 Unit    Access Format  Status   Type       Ident (file)
 -------------------------------------------------------
   3      SEQ    FORM   TRANSP  NORMAL      LOGFILE
                                          ( /home/milias/work/projects/open-collection/theoretical_chemistry/projects/nmr_diplomovky/derivaty_markerov/derivative_2_Peter/ams/sozora/basis_qz4p-j/der2.nmr_opbe_sozora_gnuc_qz4p-j_good_cosmo-chcl3.logfile )
