

 Parallel Execution: Process Information
 ==============================================================================
 Rank   Node Name                              NodeID   MyNodeRank  NodeMaster
    0   adf1                                      0          0          0
    1   adf1                                      0          1         -1
    2   adf1                                      0          2         -1
    3   adf1                                      0          3         -1
    4   adf1                                      0          4         -1
    5   adf1                                      0          5         -1
    6   adf1                                      0          6         -1
    7   adf1                                      0          7         -1
    8   adf1                                      0          8         -1
    9   adf1                                      0          9         -1
   10   adf1                                      0         10         -1
   11   adf1                                      0         11         -1
 ==============================================================================


May use up to 22932MB of RAM as shared memory on node 0

 *******************************************************************************
 *                                                                             *
 *  --------------------------------                                           *
 *   Amsterdam Modeling Suite (AMS)              2020.202                      *
 *  --------------------------------                                           *
 *                                               r90167 2020-12-05             *
 *                                                                             *
 *                                                                             *
 *                              =================                              *
 *                              |               |                              *
 *                              |     A M S     |                              *
 *                              |               |                              *
 *                              =================                              *
 *                                                                             *
 *                                                                             *
 *   Online information and documentation:  https://www.scm.com/support/       *
 *   E-mail:  support@scm.com   info@scm.com                                   *
 *                                                                             *
 *   Scientific publications using AMS results must be properly referenced     *
 *   See the User Manuals (or the web site) for recommended citations          *
 *   The terms and conditions of the End User License Agreement apply to       *
 *   the use of AMS, https://www.scm.com/license-terms/                        *
 *                                                                             *
 **********************  x86_64_linux_intel / intelmpi  ************************
 
 Licensed to: Dr. Miroslav Ilias / Matej Bel University, Department Chemistry, Fac. Natural Sciences / Banska Bystrica / SLOVAKIA
 SCM User ID: u17848
  
 AMS 2020.202  RunTime: Feb15-2021 17:43:30  Nodes: 1  Procs: 12

 AMS jobname: ams
 AMS jobid  : 1723460289

 Start   directory: /home/milias/Work/projects/open-collection/theoretical_chemistry/projects/nmr_diplomovky/reference_compounds/phosphoric_acid/ams/pbe0_tz2p_good/cosmo-chcl3/tmp.milias.13946.0.noindex/
 Results directory: /home/milias/Work/projects/open-collection/theoretical_chemistry/projects/nmr_diplomovky/reference_compounds/phosphoric_acid/ams/pbe0_tz2p_good/cosmo-chcl3/phosporic_acid.geopt_freq_nmrshield_pbe0_tz2p_good_cosmo-chcl3.results/
 Scratch directory: /tmp/amstmp_ams_kid0.1723460289/


 Communication costs MPI_COMM_WORLD:      2.750 usec per message,   0.0267 usec per 8-byte item
 Communication costs for intra-node:      2.675 usec per message,   0.0268 usec per 8-byte item

 RNG seed: 742028832 1764077600 647785996 1782713850 -715054306 33906393 -1664034623 -1788016426



                       *********************************************************************
                       *  ADF 2020.202  RunTime: Feb15-2021 17:43:30  Nodes: 1  Procs: 12  *
                       *********************************************************************
  
       ***************************
       *  GEOMETRY OPTIMIZATION  *
       ***************************

Optimization Method                    Quasi Newton
Optimization Coordinates               Delocalized Coordinates
Optimize lattice                       F
 
 ------------------------------------------------------
 Convergence criteria (Hartree,Angstrom)
 ------------------------------------------------------
 Maximum gradient               0.001000000000
 Maximum rms gradient           0.000666666667
 Maximum step allowed           0.001000000000
 Maximum rms step allowed       0.000666666667
 Maximum energy change allowe   0.000080000000
 Maximum stress energy allowe   0.000500000000
 
Initial model Hessian                  Automatic Hessian
 
------------------------------------
Quasi-Newton Optimizer Parameters
------------------------------------
Hessian Update Method                  BFGS
Maximum number of steps                  250
First GDIIS cycle                          0
Maximum GDIIS vectors                      0
Trust radius (bohr)                        0.200000
Trust radius varies                        T
Constraints converged at all steps         T
Use projector                              T
 
 Rigid motions settings for: old optimizer
 Atomic rotations (x,y,z):     T T T
 Atomic translations (x,y,z):  T T T
 Tolerance:                   1.000000000000000E-006
 
--------
Geometry
--------
Atoms
  Index Symbol   x (angstrom)   y (angstrom)   z (angstrom)
      1      P    -0.00000000    -0.00000000    -0.16289629       adf.R=1.850
      2      O    -1.37349922    -0.35406788     0.52325653       adf.R=1.517
      3      O     0.99338139    -1.01245127     0.52325653       adf.R=1.517
      4      O     0.38011782     1.36651915     0.52325653       adf.R=1.517
      5      O    -0.00000000    -0.00000000    -1.63218030       adf.R=1.517
      6      H    -2.14207944     0.02017583     0.07510234       adf.R=1.350
      7      H     1.05356694    -1.86518313     0.07510234       adf.R=1.350
      8      H     1.08851251     1.84500730     0.07510234       adf.R=1.350
 
Total System Charge             0.00000
Bonding info available!
 
 
----------------
ADF Engine Input
----------------
 
 Basis
 Type TZ2P
 Core None
 End
 Save TAPE10
 XC
 Hybrid PBE0
 End
 Relativity
 Level None
 End
 Solvation
 Surf Delley
 Solv name=Chloroform cav0=0.0 cav1=0.0067639
 Charged method=CONJ
 C-Mat POT
 SCF VAR ALL
 CSMRSP
 End
 NumericalQuality Good
 

 Title: *** (NO TITLE) ***

Number of symmetry operators: 3
Schoenflies symbol:           C(3)
 Using automatic Hessian for delocalized coordinates.
 *** GOStep1 ***

 SOLVATION
-------------------------------------------

  The Delley construction of COSMO surface surface is calculated

       Division Level for Surface Triangles (NDIV)                  3
       Final Division Level for Triangles (NFDIV)                   1
       Radius of the Solvent (RSOL)                           3.17000 angstr
  Dielectric Constant (EPSL)                                  4.80000

       COSMO equation is solved iteratively-               conjugate-gradient

       Maximun of Iterations for Charges (NCIX)                  1000
       Criterion for Charge convergence (CCNV)                1.0E-08

  COSMO charges included variationally in SCF

       COSMO included at every SCF cycle

  Geometry-dependent empirical factor                         0.00000

  C-Matrix calculated in cspmtx

  In cspmtx, C-Matrix calculated using fitted potential

-------------------------------------------



 -------------------------------------------
  COSMO surface
  Area             =          351.761
  Volume           =          526.033
  Number of Points =          945
 -------------------------------------------



 ======================
 RI Hartree-Fock Scheme
 ======================
  
 Fit Set Quality     : GOOD
 Integration Quality : GOOD
 Threshold Quality   : GOOD
 Response Quality    : DEFAULT
 Is Range Separated  :  F
 
 RIHartreeFock Dependency: number of modified vectors:           3
 cosmo_calcen: 0.5 (esolb+esolc) (Hartrees) =   -0.020894

 Solvation energy (screening term,uncorrected) =    -13.111253 kcal/mol

 Solvation energy (dispersion and cavitation terms) =      0.527460 kcal/mol
 Solvation Energy Contributions (Hartrees)
          esola   esolb+esolc
     0.02089411   -0.04178822
 esol last cycle   -0.02089411
  
 Hartree-Fock exchange energy:   -56.8406724152107     
 cosmo_calcen: 0.5 (esolb+esolc) (Hartrees) =   -0.020894

 Solvation energy (screening term,uncorrected) =    -13.111255 kcal/mol

 Solvation energy (dispersion and cavitation terms) =      0.527460 kcal/mol
 Solvation Energy Contributions (Hartrees)
          esola   esolb+esolc
     0.02089411   -0.04178822
 esol last cycle   -0.02089411
  pauli hf:                              1.143668982823337         31.1208           717.66          3002.70
  elstat hf:                            -0.830890368284942        -22.6097          -521.39         -2181.50

 Energy gradients wrt nuclear displacements
 ==========================================

     Atom      Cartesian (a.u./angstrom)
                 X         Y         Z
 ----------------------------------------
     1 P    -0.000045 -0.000036  0.011106
     2 O     0.002479 -0.000356 -0.001375
     3 O    -0.000923  0.002313 -0.001393
     4 O    -0.001525 -0.001967 -0.001346
     5 O     0.000003  0.000005 -0.006568
     6 H    -0.001713  0.000633 -0.000151
     7 H     0.000348 -0.001771 -0.000144
     8 H     0.001376  0.001179 -0.000129
 ----------------------------------------
 Mulliken charges used for AMS results%charges...
 
----------------------------------------------------------------------
Geometry Convergence after Step   1       (Hartree/Angstrom,Angstrom)
----------------------------------------------------------------------
current energy                               -2.25700020 Hartree
energy change                      -2.25700020     0.00008000    F
constrained gradient max            0.01110641     0.00100000    F
constrained gradient rms            0.00289202     0.00066667    F
gradient max                        0.01110641
gradient rms                        0.00289202
cart. step max                      0.00222737     0.00100000    F
cart. step rms                      0.00145525     0.00066667    F
 
 
--------
Geometry
--------
Atoms
  Index Symbol   x (angstrom)   y (angstrom)   z (angstrom)
      1      P    -0.00000000     0.00000000    -0.16374411       adf.R=1.850
      2      O    -1.37357051    -0.35207438     0.52486848       adf.R=1.517
      3      O     0.99169060    -1.01350976     0.52486848       adf.R=1.517
      4      O     0.38187990     1.36558414     0.52486848       adf.R=1.517
      5      O    -0.00000000     0.00000000    -1.62995293       adf.R=1.517
      6      H    -2.14050588     0.01887099     0.07303054       adf.R=1.350
      7      H     1.05391018    -1.86316797     0.07303054       adf.R=1.350
      8      H     1.08659570     1.84429697     0.07303054       adf.R=1.350
 
Total System Charge             0.00000
Bonding info available!
 
 *** GOStep2 ***

 SOLVATION
-------------------------------------------

  The Delley construction of COSMO surface surface is calculated

       Division Level for Surface Triangles (NDIV)                  3
       Final Division Level for Triangles (NFDIV)                   1
       Radius of the Solvent (RSOL)                           3.17000 angstr
  Dielectric Constant (EPSL)                                  4.80000

       COSMO equation is solved iteratively-               conjugate-gradient

       Maximun of Iterations for Charges (NCIX)                  1000
       Criterion for Charge convergence (CCNV)                1.0E-08

  COSMO charges included variationally in SCF

       COSMO included at every SCF cycle

  Geometry-dependent empirical factor                         0.00000

  C-Matrix calculated in cspmtx

  In cspmtx, C-Matrix calculated using fitted potential

-------------------------------------------



 -------------------------------------------
  COSMO surface
  Area             =          351.633
  Volume           =          525.800
  Number of Points =          945
 -------------------------------------------



 ======================
 RI Hartree-Fock Scheme
 ======================
  
 Fit Set Quality     : GOOD
 Integration Quality : GOOD
 Threshold Quality   : GOOD
 Response Quality    : DEFAULT
 Is Range Separated  :  F
 
 RIHartreeFock Dependency: number of modified vectors:           3
 cosmo_calcen: 0.5 (esolb+esolc) (Hartrees) =   -0.020749

 Solvation energy (screening term,uncorrected) =    -13.019969 kcal/mol

 Solvation energy (dispersion and cavitation terms) =      0.527268 kcal/mol
 Solvation Energy Contributions (Hartrees)
          esola   esolb+esolc
     0.02074864   -0.04149728
 esol last cycle   -0.02074864
  
 Hartree-Fock exchange energy:   -56.8436084817142     
 cosmo_calcen: 0.5 (esolb+esolc) (Hartrees) =   -0.020749

 Solvation energy (screening term,uncorrected) =    -13.019970 kcal/mol

 Solvation energy (dispersion and cavitation terms) =      0.527268 kcal/mol
 Solvation Energy Contributions (Hartrees)
          esola   esolb+esolc
     0.02074864   -0.04149728
 esol last cycle   -0.02074864
  pauli hf:                              1.144416449706775         31.1412           718.13          3004.66
  elstat hf:                            -0.831958300305795        -22.6387          -522.06         -2184.31

 Energy gradients wrt nuclear displacements
 ==========================================

     Atom      Cartesian (a.u./angstrom)
                 X         Y         Z
 ----------------------------------------
     1 P    -0.000057 -0.000035  0.002155
     2 O     0.000959  0.000121 -0.001155
     3 O    -0.000570  0.000756 -0.001175
     4 O    -0.000349 -0.000887 -0.001128
     5 O     0.000004  0.000005  0.000091
     6 H    -0.000162  0.000057  0.000394
     7 H     0.000073 -0.000141  0.000402
     8 H     0.000102  0.000124  0.000416
 ----------------------------------------
 Mulliken charges used for AMS results%charges...

 dE(predicted):    -0.21417E-04, dE(actual):    -0.27116E-04, Trust radius:    0.200000, all in a.u.
 
----------------------------------------------------------------------
Geometry Convergence after Step   2       (Hartree/Angstrom,Angstrom)
----------------------------------------------------------------------
current energy                               -2.25702731 Hartree
energy change                      -0.00002712     0.00008000    T
constrained gradient max            0.00215532     0.00100000    F
constrained gradient rms            0.00070540     0.00066667    F
gradient max                        0.00215532
gradient rms                        0.00070540
cart. step max                      0.00302280     0.00100000    F
cart. step rms                      0.00175756     0.00066667    F
 
 
--------
Geometry
--------
Atoms
  Index Symbol   x (angstrom)   y (angstrom)   z (angstrom)
      1      P    -0.00000000     0.00000000    -0.16279422       adf.R=1.850
      2      O    -1.37448603    -0.34967057     0.52708167       adf.R=1.517
      3      O     0.99006661    -1.01550453     0.52708167       adf.R=1.517
      4      O     0.38441942     1.36517510     0.52708167       adf.R=1.517
      5      O    -0.00000000     0.00000000    -1.62847396       adf.R=1.517
      6      H    -2.14011608     0.01717444     0.07000774       adf.R=1.350
      7      H     1.05518454    -1.86198211     0.07000774       adf.R=1.350
      8      H     1.08493154     1.84480767     0.07000774       adf.R=1.350
 
Total System Charge             0.00000
Bonding info available!
 
 *** GOStep3 ***

 SOLVATION
-------------------------------------------

  The Delley construction of COSMO surface surface is calculated

       Division Level for Surface Triangles (NDIV)                  3
       Final Division Level for Triangles (NFDIV)                   1
       Radius of the Solvent (RSOL)                           3.17000 angstr
  Dielectric Constant (EPSL)                                  4.80000

       COSMO equation is solved iteratively-               conjugate-gradient

       Maximun of Iterations for Charges (NCIX)                  1000
       Criterion for Charge convergence (CCNV)                1.0E-08

  COSMO charges included variationally in SCF

       COSMO included at every SCF cycle

  Geometry-dependent empirical factor                         0.00000

  C-Matrix calculated in cspmtx

  In cspmtx, C-Matrix calculated using fitted potential

-------------------------------------------



 -------------------------------------------
  COSMO surface
  Area             =          351.617
  Volume           =          525.786
  Number of Points =          947
 -------------------------------------------



 ======================
 RI Hartree-Fock Scheme
 ======================
  
 Fit Set Quality     : GOOD
 Integration Quality : GOOD
 Threshold Quality   : GOOD
 Response Quality    : DEFAULT
 Is Range Separated  :  F
 
 RIHartreeFock Dependency: number of modified vectors:           3
 cosmo_calcen: 0.5 (esolb+esolc) (Hartrees) =   -0.020673

 Solvation energy (screening term,uncorrected) =    -12.972504 kcal/mol

 Solvation energy (dispersion and cavitation terms) =      0.527245 kcal/mol
 Solvation Energy Contributions (Hartrees)
          esola   esolb+esolc
     0.02067300   -0.04134600
 esol last cycle   -0.02067300
  
 Hartree-Fock exchange energy:   -56.8428797037763     
 cosmo_calcen: 0.5 (esolb+esolc) (Hartrees) =   -0.020673

 Solvation energy (screening term,uncorrected) =    -12.972505 kcal/mol

 Solvation energy (dispersion and cavitation terms) =      0.527245 kcal/mol
 Solvation Energy Contributions (Hartrees)
          esola   esolb+esolc
     0.02067300   -0.04134600
 esol last cycle   -0.02067300
  pauli hf:                              1.145307553468328         31.1654           718.69          3007.00
  elstat hf:                            -0.831604876727489        -22.6291          -521.84         -2183.38

 Energy gradients wrt nuclear displacements
 ==========================================

     Atom      Cartesian (a.u./angstrom)
                 X         Y         Z
 ----------------------------------------
     1 P    -0.000066 -0.000040 -0.000826
     2 O    -0.000052  0.000045 -0.000475
     3 O     0.000008 -0.000081 -0.000495
     4 O     0.000088  0.000028 -0.000443
     5 O     0.000004  0.000006  0.001048
     6 H     0.000217 -0.000064  0.000388
     7 H    -0.000009  0.000245  0.000397
     8 H    -0.000190 -0.000139  0.000407
 ----------------------------------------
 Mulliken charges used for AMS results%charges...

 dE(predicted):    -0.55954E-05, dE(actual):    -0.10539E-04, Trust radius:    0.200000, all in a.u.
 
----------------------------------------------------------------------
Geometry Convergence after Step   3       (Hartree/Angstrom,Angstrom)
----------------------------------------------------------------------
current energy                               -2.25703785 Hartree
energy change                      -0.00001054     0.00008000    T
constrained gradient max            0.00104824     0.00100000    F
constrained gradient rms            0.00035944     0.00066667    T
gradient max                        0.00104824
gradient rms                        0.00035944
cart. step max                      0.00413189     0.00100000    F
cart. step rms                      0.00230902     0.00066667    F
 
 
--------
Geometry
--------
Atoms
  Index Symbol   x (angstrom)   y (angstrom)   z (angstrom)
      1      P    -0.00000000     0.00000000    -0.16048485       adf.R=1.850
      2      O    -1.37569337    -0.34664178     0.52970674       adf.R=1.517
      3      O     0.98804727    -1.01806452     0.52970674       adf.R=1.517
      4      O     0.38764610     1.36470630     0.52970674       adf.R=1.517
      5      O    -0.00000000     0.00000000    -1.62626288       adf.R=1.517
      6      H    -2.13988751     0.01503010     0.06587584       adf.R=1.350
      7      H     1.05692730    -1.86071199     0.06587584       adf.R=1.350
      8      H     1.08296020     1.84568189     0.06587584       adf.R=1.350
 
Total System Charge             0.00000
Bonding info available!
 
 *** GOStep4 ***

 SOLVATION
-------------------------------------------

  The Delley construction of COSMO surface surface is calculated

       Division Level for Surface Triangles (NDIV)                  3
       Final Division Level for Triangles (NFDIV)                   1
       Radius of the Solvent (RSOL)                           3.17000 angstr
  Dielectric Constant (EPSL)                                  4.80000

       COSMO equation is solved iteratively-               conjugate-gradient

       Maximun of Iterations for Charges (NCIX)                  1000
       Criterion for Charge convergence (CCNV)                1.0E-08

  COSMO charges included variationally in SCF

       COSMO included at every SCF cycle

  Geometry-dependent empirical factor                         0.00000

  C-Matrix calculated in cspmtx

  In cspmtx, C-Matrix calculated using fitted potential

-------------------------------------------



 -------------------------------------------
  COSMO surface
  Area             =          351.638
  Volume           =          525.823
  Number of Points =          945
 -------------------------------------------



 ======================
 RI Hartree-Fock Scheme
 ======================
  
 Fit Set Quality     : GOOD
 Integration Quality : GOOD
 Threshold Quality   : GOOD
 Response Quality    : DEFAULT
 Is Range Separated  :  F
 
 RIHartreeFock Dependency: number of modified vectors:           3
 cosmo_calcen: 0.5 (esolb+esolc) (Hartrees) =   -0.020618

 Solvation energy (screening term,uncorrected) =    -12.938071 kcal/mol

 Solvation energy (dispersion and cavitation terms) =      0.527275 kcal/mol
 Solvation Energy Contributions (Hartrees)
          esola   esolb+esolc
     0.02061813   -0.04123625
 esol last cycle   -0.02061813
  
 Hartree-Fock exchange energy:   -56.8417474312256     
 cosmo_calcen: 0.5 (esolb+esolc) (Hartrees) =   -0.020618

 Solvation energy (screening term,uncorrected) =    -12.938071 kcal/mol

 Solvation energy (dispersion and cavitation terms) =      0.527275 kcal/mol
 Solvation Energy Contributions (Hartrees)
          esola   esolb+esolc
     0.02061813   -0.04123625
 esol last cycle   -0.02061813
  pauli hf:                              1.146090667316706         31.1867           719.18          3009.06
  elstat hf:                            -0.831162855665969        -22.6171          -521.56         -2182.22

 Energy gradients wrt nuclear displacements
 ==========================================

     Atom      Cartesian (a.u./angstrom)
                 X         Y         Z
 ----------------------------------------
     1 P    -0.000075 -0.000047 -0.001593
     2 O    -0.000459 -0.000138  0.000145
     3 O     0.000374 -0.000337  0.000114
     4 O     0.000131  0.000471  0.000174
     5 O     0.000004  0.000007  0.000737
     6 H     0.000171 -0.000012  0.000133
     7 H    -0.000029  0.000177  0.000142
     8 H    -0.000119 -0.000121  0.000148
 ----------------------------------------
 Mulliken charges used for AMS results%charges...

 dE(predicted):    -0.34422E-05, dE(actual):    -0.73053E-05, Trust radius:    0.200000, all in a.u.
 
----------------------------------------------------------------------
Geometry Convergence after Step   4       (Hartree/Angstrom,Angstrom)
----------------------------------------------------------------------
current energy                               -2.25704516 Hartree
energy change                      -0.00000731     0.00008000    T
constrained gradient max            0.00159296     0.00100000    F
constrained gradient rms            0.00040866     0.00066667    T
gradient max                        0.00159296
gradient rms                        0.00040866
cart. step max                      0.00211919     0.00100000    F
cart. step rms                      0.00119125     0.00066667    F
 
 
--------
Geometry
--------
Atoms
  Index Symbol   x (angstrom)   y (angstrom)   z (angstrom)
      1      P    -0.00000000     0.00000000    -0.15893847       adf.R=1.850
      2      O    -1.37620245    -0.34502629     0.53088500       adf.R=1.517
      3      O     0.98690275    -1.01931314     0.53088500       adf.R=1.517
      4      O     0.38929969     1.36433943     0.53088500       adf.R=1.517
      5      O    -0.00000000     0.00000000    -1.62498648       adf.R=1.517
      6      H    -2.13980883     0.01390852     0.06375666       adf.R=1.350
      7      H     1.05785928    -1.86008306     0.06375666       adf.R=1.350
      8      H     1.08194954     1.84617454     0.06375666       adf.R=1.350
 
Total System Charge             0.00000
Bonding info available!
 
 *** GOStep5 ***

 SOLVATION
-------------------------------------------

  The Delley construction of COSMO surface surface is calculated

       Division Level for Surface Triangles (NDIV)                  3
       Final Division Level for Triangles (NFDIV)                   1
       Radius of the Solvent (RSOL)                           3.17000 angstr
  Dielectric Constant (EPSL)                                  4.80000

       COSMO equation is solved iteratively-               conjugate-gradient

       Maximun of Iterations for Charges (NCIX)                  1000
       Criterion for Charge convergence (CCNV)                1.0E-08

  COSMO charges included variationally in SCF

       COSMO included at every SCF cycle

  Geometry-dependent empirical factor                         0.00000

  C-Matrix calculated in cspmtx

  In cspmtx, C-Matrix calculated using fitted potential

-------------------------------------------



 -------------------------------------------
  COSMO surface
  Area             =          351.737
  Volume           =          525.957
  Number of Points =          943
 -------------------------------------------



 ======================
 RI Hartree-Fock Scheme
 ======================
  
 Fit Set Quality     : GOOD
 Integration Quality : GOOD
 Threshold Quality   : GOOD
 Response Quality    : DEFAULT
 Is Range Separated  :  F
 
 RIHartreeFock Dependency: number of modified vectors:           3
 cosmo_calcen: 0.5 (esolb+esolc) (Hartrees) =   -0.020607

 Solvation energy (screening term,uncorrected) =    -12.930882 kcal/mol

 Solvation energy (dispersion and cavitation terms) =      0.527424 kcal/mol
 Solvation Energy Contributions (Hartrees)
          esola   esolb+esolc
     0.02060667   -0.04121334
 esol last cycle   -0.02060667
  
 Hartree-Fock exchange energy:   -56.8415453816848     
 cosmo_calcen: 0.5 (esolb+esolc) (Hartrees) =   -0.020607

 Solvation energy (screening term,uncorrected) =    -12.930883 kcal/mol

 Solvation energy (dispersion and cavitation terms) =      0.527424 kcal/mol
 Solvation Energy Contributions (Hartrees)
          esola   esolb+esolc
     0.02060667   -0.04121334
 esol last cycle   -0.02060667
  pauli hf:                              1.146204232281043         31.1898           719.25          3009.36
  elstat hf:                            -0.831129598087342        -22.6162          -521.54         -2182.13

 Energy gradients wrt nuclear displacements
 ==========================================

     Atom      Cartesian (a.u./angstrom)
                 X         Y         Z
 ----------------------------------------
     1 P    -0.000080 -0.000050 -0.000781
     2 O    -0.000258 -0.000155  0.000209
     3 O     0.000291 -0.000152  0.000179
     4 O     0.000016  0.000311  0.000247
     5 O     0.000005  0.000007  0.000192
     6 H     0.000057  0.000032 -0.000022
     7 H    -0.000009  0.000055 -0.000012
     8 H    -0.000021 -0.000047 -0.000013
 ----------------------------------------
 Mulliken charges used for AMS results%charges...

 dE(predicted):    -0.84522E-06, dE(actual):    -0.22301E-05, Trust radius:    0.200000, all in a.u.
 
---------------------------------------------------------
Geometry Convergence after Step   5       ** CONVERGED **
---------------------------------------------------------
current energy                               -2.25704739 Hartree
energy change                      -0.00000223     0.00008000    T
constrained gradient max            0.00078073     0.00100000    T
constrained gradient rms            0.00021202     0.00066667    T
gradient max                        0.00078073
gradient rms                        0.00021202
cart. step max                      0.00067854     0.00100000    T
cart. step rms                      0.00042504     0.00066667    T
 
Geometry optimization converged

Optimized geometry:
 
--------
Geometry
--------
Atoms
  Index Symbol   x (angstrom)   y (angstrom)   z (angstrom)
      1      P    -0.00000000     0.00000000    -0.15893847       adf.R=1.850
      2      O    -1.37620245    -0.34502629     0.53088500       adf.R=1.517
      3      O     0.98690275    -1.01931314     0.53088500       adf.R=1.517
      4      O     0.38929969     1.36433943     0.53088500       adf.R=1.517
      5      O    -0.00000000     0.00000000    -1.62498648       adf.R=1.517
      6      H    -2.13980883     0.01390852     0.06375666       adf.R=1.350
      7      H     1.05785928    -1.86008306     0.06375666       adf.R=1.350
      8      H     1.08194954     1.84617454     0.06375666       adf.R=1.350
 
Total System Charge             0.00000
Bonding info available!
 
Performing a single point calculation on the final geometry ...

 *** adf ***



 ===========================
 A T T A C H E D   F I L E S
 ===========================
  
 Restart/tmp/amstmp_ams_kid0.1723460289/GOStep5.rkf*** GOStep5 ***



 ===============================
 M O D E L   P A R A M E T E R S
 ===============================
  
 DENSITY FUNCTIONAL POTENTIAL (scf)
    Hybrid:                            PBE0                                    == Not Default ==

 SPIN  (restricted / unrestr.)
    Molecule:                          Restricted                               
    Fragments:                         Restricted                               

 OTHER ASPECTS
    Relativistic Corrections:          ---                                     == Not Default ==

    Nuclear Charge Density Model:      Point Charge Nuclei                      
    Core Treatment:                    Frozen Orbital(s)                        

    Hyperfine or Zeeman Interaction:   ---                                      

 SOLVATION
-------------------------------------------

  The Delley construction of COSMO surface surface is calculated

       Division Level for Surface Triangles (NDIV)                  3
       Final Division Level for Triangles (NFDIV)                   1
       Radius of the Solvent (RSOL)                           3.17000 angstr
  Dielectric Constant (EPSL)                                  4.80000

       COSMO equation is solved iteratively-               conjugate-gradient

       Maximun of Iterations for Charges (NCIX)                  1000
       Criterion for Charge convergence (CCNV)                1.0E-08

  COSMO charges included variationally in SCF

       COSMO included at every SCF cycle

  Geometry-dependent empirical factor                         0.00000

  C-Matrix calculated in cspmtx

  In cspmtx, C-Matrix calculated using fitted potential

-------------------------------------------




 ===============
 G E O M E T R Y  ***  3D  Molecule  ***
 ===============
  

 ATOMS
 =====                            X Y Z                    CHARGE                     RADIUS
                                (Angstrom)             Nucl     +Core       At.Mass (Angstrom)
                       --------------------------    ----------------       ------- ----------
    1  P              -0.0000    0.0000   -0.1589     15.00     15.00       30.9738    1.8500
    2  O              -1.3762   -0.3450    0.5309      8.00      8.00       15.9949    1.5170
    3  O               0.9869   -1.0193    0.5309      8.00      8.00       15.9949    1.5170
    4  O               0.3893    1.3643    0.5309      8.00      8.00       15.9949    1.5170
    5  O              -0.0000    0.0000   -1.6250      8.00      8.00       15.9949    1.5170
    6  H              -2.1398    0.0139    0.0638      1.00      1.00        1.0078    1.3500
    7  H               1.0579   -1.8601    0.0638      1.00      1.00        1.0078    1.3500
    8  H               1.0819    1.8462    0.0638      1.00      1.00        1.0078    1.3500


 FRAGMENTS
 =========                                     Atoms in this Fragment     Cart. coord.s (Angstrom)
                                               -------------------------------------------------------
    1  P                                                 1  P           -0.0000    0.0000   -0.1589
    2  O                                                 2  O           -1.3762   -0.3450    0.5309
    3  O                                                 3  O            0.9869   -1.0193    0.5309
    4  O                                                 4  O            0.3893    1.3643    0.5309
    5  O                                                 5  O           -0.0000    0.0000   -1.6250
    6  H                                                 6  H           -2.1398    0.0139    0.0638
    7  H                                                 7  H            1.0579   -1.8601    0.0638
    8  H                                                 8  H            1.0819    1.8462    0.0638


 Interatomic Distance Matrix (Angstrom)
 --------------------------------------

   1)     0.000
   2)     1.578   0.000
   3)     1.578   2.457   0.000
   4)     1.578   2.457   2.457   0.000
   5)     1.466   2.581   2.581   2.581   0.000
   6)     2.151   0.964   3.326   2.905   2.726   0.000
   7)     2.151   2.905   0.964   3.326   2.726   3.706   0.000
   8)     2.151   3.326   2.905   0.964   2.726   3.706   3.706   0.000

 Min. Distance =    0.9644
 Max. Distance =    3.7063



 =====================================
 S Y M M E T R Y ,   E L E C T R O N S
 =====================================
  
 Symmetry: NOSYM

 Irreducible Representations, including subspecies
 -------------------------------------------------
 A

 Symmetry is NOT used when fitting density


 Configuration of Valence Electrons
 ==================================
 ( determined in the SCF procedure )

 Total:   50

 Net Charge: 0 (Nuclei minus Electrons)

 Aufbau principle for MO occupations will be applied through SCF cycle no.     150
 Thereafter, the program will assign electrons to MOs that are spatially
 similar to the occupied MOs in a "reference" cycle ("KeepOrbitals").
 The reference cycle is always the PREVIOUS cycle: it will evolve with
 the SCF procedure.
1
 ***************************************************************************************************



                                      ****************************************
                                      *  B U I L D : (Fragments, Functions)  *
                                      ****************************************
  



 =======
 S F O s  ***  (Symmetrized Fragment Orbitals)  ***
 =======
  
 SFOs are linear combinations of (valence) Fragment Orbitals (FOs), such that the SFOs transform as the
 irreducible representations of the (molecular) symmetry group. Each SFO is therefore characterized by
 an irrep of the molecule and by a few (or only one) generating FOs.
 The SFOs constitute a symmetry-adapted basis for the Fock matrix. The MO eigenvector coefficients in
 this basis provide a direct interpretation of the MOs in terms of Frontier Orbital Theory.

 The SFOs are combined with auxiliary Core Functions (CFs) to ensure orthogonalization on the (frozen)
 Core Orbitals (COs). The Core-orthogonalized SFOs (CSFOs) constitute the true Fock basis.

 The FOs, and hence also the (C)SFOs are combinations of the elementary basis functions (BAS). The basis
 functions that participate in the description of the SFOs depend on the irrep. The indices of the
 involved functions are printed below for each irrep.
 (The complete list of primitive basis functions is printed in another section)

 Total nr. of (C)SFOs (summation over all irreps) :   171

 NOTE: a (C)SFO that is defined as a combination of more than one FO is usually NOT normalized.



                                       === A ===
 Nr. of SFOs :  171
 Cartesian basis functions that participate in this irrep (total number =   194) :
      1     2     3     4    11    12    13     5     8    14
     17    20     6     9    15    18    21     7    10    16
     19    22    23    24    25    26    27    28    29    30
     31    32    33    34    35    36    37    38    39    40
     41    42    43    44    47    50    45    48    51    46
     49    52    53    54    55    56    57    58    59    60
     61    62    63    64    65    66    67    68    69    70
     71    72    73    74    77    80    75    78    81    76
     79    82    83    84    85    86    87    88    89    90
     91    92    93    94    95    96    97    98    99   100
    101   102   103   104   107   110   105   108   111   106
    109   112   113   114   115   116   117   118   119   120
    121   122   123   124   125   126   127   128   129   130
    131   132   133   134   137   140   135   138   141   136
    139   142   143   144   145   146   147   148   149   150
    151   152   153   154   155   156   157   158   159   160
    161   162   163   164   165   166   167   168   169   170
    171   172   173   174   175   176   177   178   179   180
    181   182   183   184   185   186   187   188   189   190
    191   192   193   194

    SFO  (index         Fragment          Generating    Expansion in Fragment Orbitals
  indx  incl.CFs)   Occup   Orb.Energy   FragmentType  Coeff.   Orbital     on Fragment
 --------------------------------------------------------------------------------------
     1       1      2.000     -77.285 au  P             1.00      1 S               1
                        (   -2103.045 eV)
     2       2      2.000      -6.676 au  P             1.00      2 S               1
                        (    -181.657 eV)
     3       3      2.000      -0.577 au  P             1.00      3 S               1
                        (     -15.702 eV)
     4       4       --         0.141 au  P             1.00      4 S               1
                        (       3.844 eV)
     5       5       --         1.386 au  P             1.00      5 S               1
                        (      37.721 eV)
     6       6       --         9.539 au  P             1.00      6 S               1
                        (     259.574 eV)
     7       7       --       165.272 au  P             1.00      7 S               1
                        (    4497.267 eV)
     8       8      2.000      -4.807 au  P             1.00      1 P:x             1
                        (    -130.803 eV)
     9       9      1.000      -0.208 au  P             1.00      2 P:x             1
                        (      -5.669 eV)
    10      10       --         0.107 au  P             1.00      3 P:x             1
                        (       2.910 eV)
    11      11       --         0.924 au  P             1.00      4 P:x             1
                        (      25.147 eV)
    12      12       --        10.562 au  P             1.00      5 P:x             1
                        (     287.399 eV)
    13      13      2.000      -4.807 au  P             1.00      1 P:y             1
                        (    -130.803 eV)
    14      14      1.000      -0.208 au  P             1.00      2 P:y             1
                        (      -5.669 eV)
    15      15       --         0.107 au  P             1.00      3 P:y             1
                        (       2.910 eV)
    16      16       --         0.924 au  P             1.00      4 P:y             1
                        (      25.147 eV)
    17      17       --        10.562 au  P             1.00      5 P:y             1
                        (     287.399 eV)
    18      18      2.000      -4.807 au  P             1.00      1 P:z             1
                        (    -130.803 eV)
    19      19      1.000      -0.208 au  P             1.00      2 P:z             1
                        (      -5.669 eV)
    20      20       --         0.107 au  P             1.00      3 P:z             1
                        (       2.910 eV)
    21      21       --         0.924 au  P             1.00      4 P:z             1
                        (      25.147 eV)
    22      22       --        10.562 au  P             1.00      5 P:z             1
                        (     287.399 eV)
    23      23       --         0.439 au  P             1.00      1 D:z2            1
                        (      11.944 eV)
    24      24       --         0.439 au  P             1.00      1 D:x2-y2         1
                        (      11.944 eV)
    25      25       --         0.439 au  P             1.00      1 D:xy            1
                        (      11.944 eV)
    26      26       --         0.439 au  P             1.00      1 D:xz            1
                        (      11.944 eV)
    27      27       --         0.439 au  P             1.00      1 D:yz            1
                        (      11.944 eV)
    28      28       --         1.211 au  P             1.00      1 F:z3            1
                        (      32.944 eV)
    29      29       --         1.211 au  P             1.00      1 F:z             1
                        (      32.944 eV)
    30      30       --         1.211 au  P             1.00      1 F:xyz           1
                        (      32.944 eV)
    31      31       --         1.211 au  P             1.00      1 F:z2x           1
                        (      32.944 eV)
    32      32       --         1.211 au  P             1.00      1 F:z2y           1
                        (      32.944 eV)
    33      33       --         1.211 au  P             1.00      1 F:x             1
                        (      32.944 eV)
    34      34       --         1.211 au  P             1.00      1 F:y             1
                        (      32.944 eV)
    35      35      2.000     -19.382 au  O             1.00      1 S               2
                        (    -527.413 eV)
    36      36      2.000      -0.998 au  O             1.00      2 S               2
                        (     -27.149 eV)
    37      37       --         0.858 au  O             1.00      3 S               2
                        (      23.351 eV)
    38      38       --        13.707 au  O             1.00      4 S               2
                        (     372.994 eV)
    39      39       --       123.922 au  O             1.00      5 S               2
                        (    3372.077 eV)
    40      40      1.333      -0.366 au  O             1.00      1 P:x             2
                        (      -9.963 eV)
    41      41       --         0.397 au  O             1.00      2 P:x             2
                        (      10.809 eV)
    42      42       --         3.984 au  O             1.00      3 P:x             2
                        (     108.415 eV)
    43      43      1.333      -0.366 au  O             1.00      1 P:y             2
                        (      -9.963 eV)
    44      44       --         0.397 au  O             1.00      2 P:y             2
                        (      10.809 eV)
    45      45       --         3.984 au  O             1.00      3 P:y             2
                        (     108.415 eV)
    46      46      1.333      -0.366 au  O             1.00      1 P:z             2
                        (      -9.963 eV)
    47      47       --         0.397 au  O             1.00      2 P:z             2
                        (      10.809 eV)
    48      48       --         3.984 au  O             1.00      3 P:z             2
                        (     108.415 eV)
    49      49       --         1.128 au  O             1.00      1 D:z2            2
                        (      30.700 eV)
    50      50       --         1.128 au  O             1.00      1 D:x2-y2         2
                        (      30.700 eV)
    51      51       --         1.128 au  O             1.00      1 D:xy            2
                        (      30.700 eV)
    52      52       --         1.128 au  O             1.00      1 D:xz            2
                        (      30.700 eV)
    53      53       --         1.128 au  O             1.00      1 D:yz            2
                        (      30.700 eV)
    54      54       --         3.446 au  O             1.00      1 F:z3            2
                        (      93.778 eV)
    55      55       --         3.446 au  O             1.00      1 F:z             2
                        (      93.778 eV)
    56      56       --         3.446 au  O             1.00      1 F:xyz           2
                        (      93.778 eV)
    57      57       --         3.446 au  O             1.00      1 F:z2x           2
                        (      93.778 eV)
    58      58       --         3.446 au  O             1.00      1 F:z2y           2
                        (      93.778 eV)
    59      59       --         3.446 au  O             1.00      1 F:x             2
                        (      93.778 eV)
    60      60       --         3.446 au  O             1.00      1 F:y             2
                        (      93.778 eV)
    61      61      2.000     -19.382 au  O             1.00      1 S               3
                        (    -527.413 eV)
    62      62      2.000      -0.998 au  O             1.00      2 S               3
                        (     -27.149 eV)
    63      63       --         0.858 au  O             1.00      3 S               3
                        (      23.351 eV)
    64      64       --        13.707 au  O             1.00      4 S               3
                        (     372.994 eV)
    65      65       --       123.922 au  O             1.00      5 S               3
                        (    3372.077 eV)
    66      66      1.333      -0.366 au  O             1.00      1 P:x             3
                        (      -9.963 eV)
    67      67       --         0.397 au  O             1.00      2 P:x             3
                        (      10.809 eV)
    68      68       --         3.984 au  O             1.00      3 P:x             3
                        (     108.415 eV)
    69      69      1.333      -0.366 au  O             1.00      1 P:y             3
                        (      -9.963 eV)
    70      70       --         0.397 au  O             1.00      2 P:y             3
                        (      10.809 eV)
    71      71       --         3.984 au  O             1.00      3 P:y             3
                        (     108.415 eV)
    72      72      1.333      -0.366 au  O             1.00      1 P:z             3
                        (      -9.963 eV)
    73      73       --         0.397 au  O             1.00      2 P:z             3
                        (      10.809 eV)
    74      74       --         3.984 au  O             1.00      3 P:z             3
                        (     108.415 eV)
    75      75       --         1.128 au  O             1.00      1 D:z2            3
                        (      30.700 eV)
    76      76       --         1.128 au  O             1.00      1 D:x2-y2         3
                        (      30.700 eV)
    77      77       --         1.128 au  O             1.00      1 D:xy            3
                        (      30.700 eV)
    78      78       --         1.128 au  O             1.00      1 D:xz            3
                        (      30.700 eV)
    79      79       --         1.128 au  O             1.00      1 D:yz            3
                        (      30.700 eV)
    80      80       --         3.446 au  O             1.00      1 F:z3            3
                        (      93.778 eV)
    81      81       --         3.446 au  O             1.00      1 F:z             3
                        (      93.778 eV)
    82      82       --         3.446 au  O             1.00      1 F:xyz           3
                        (      93.778 eV)
    83      83       --         3.446 au  O             1.00      1 F:z2x           3
                        (      93.778 eV)
    84      84       --         3.446 au  O             1.00      1 F:z2y           3
                        (      93.778 eV)
    85      85       --         3.446 au  O             1.00      1 F:x             3
                        (      93.778 eV)
    86      86       --         3.446 au  O             1.00      1 F:y             3
                        (      93.778 eV)
    87      87      2.000     -19.382 au  O             1.00      1 S               4
                        (    -527.413 eV)
    88      88      2.000      -0.998 au  O             1.00      2 S               4
                        (     -27.149 eV)
    89      89       --         0.858 au  O             1.00      3 S               4
                        (      23.351 eV)
    90      90       --        13.707 au  O             1.00      4 S               4
                        (     372.994 eV)
    91      91       --       123.922 au  O             1.00      5 S               4
                        (    3372.077 eV)
    92      92      1.333      -0.366 au  O             1.00      1 P:x             4
                        (      -9.963 eV)
    93      93       --         0.397 au  O             1.00      2 P:x             4
                        (      10.809 eV)
    94      94       --         3.984 au  O             1.00      3 P:x             4
                        (     108.415 eV)
    95      95      1.333      -0.366 au  O             1.00      1 P:y             4
                        (      -9.963 eV)
    96      96       --         0.397 au  O             1.00      2 P:y             4
                        (      10.809 eV)
    97      97       --         3.984 au  O             1.00      3 P:y             4
                        (     108.415 eV)
    98      98      1.333      -0.366 au  O             1.00      1 P:z             4
                        (      -9.963 eV)
    99      99       --         0.397 au  O             1.00      2 P:z             4
                        (      10.809 eV)
   100     100       --         3.984 au  O             1.00      3 P:z             4
                        (     108.415 eV)
   101     101       --         1.128 au  O             1.00      1 D:z2            4
                        (      30.700 eV)
   102     102       --         1.128 au  O             1.00      1 D:x2-y2         4
                        (      30.700 eV)
   103     103       --         1.128 au  O             1.00      1 D:xy            4
                        (      30.700 eV)
   104     104       --         1.128 au  O             1.00      1 D:xz            4
                        (      30.700 eV)
   105     105       --         1.128 au  O             1.00      1 D:yz            4
                        (      30.700 eV)
   106     106       --         3.446 au  O             1.00      1 F:z3            4
                        (      93.778 eV)
   107     107       --         3.446 au  O             1.00      1 F:z             4
                        (      93.778 eV)
   108     108       --         3.446 au  O             1.00      1 F:xyz           4
                        (      93.778 eV)
   109     109       --         3.446 au  O             1.00      1 F:z2x           4
                        (      93.778 eV)
   110     110       --         3.446 au  O             1.00      1 F:z2y           4
                        (      93.778 eV)
   111     111       --         3.446 au  O             1.00      1 F:x             4
                        (      93.778 eV)
   112     112       --         3.446 au  O             1.00      1 F:y             4
                        (      93.778 eV)
   113     113      2.000     -19.382 au  O             1.00      1 S               5
                        (    -527.413 eV)
   114     114      2.000      -0.998 au  O             1.00      2 S               5
                        (     -27.149 eV)
   115     115       --         0.858 au  O             1.00      3 S               5
                        (      23.351 eV)
   116     116       --        13.707 au  O             1.00      4 S               5
                        (     372.994 eV)
   117     117       --       123.922 au  O             1.00      5 S               5
                        (    3372.077 eV)
   118     118      1.333      -0.366 au  O             1.00      1 P:x             5
                        (      -9.963 eV)
   119     119       --         0.397 au  O             1.00      2 P:x             5
                        (      10.809 eV)
   120     120       --         3.984 au  O             1.00      3 P:x             5
                        (     108.415 eV)
   121     121      1.333      -0.366 au  O             1.00      1 P:y             5
                        (      -9.963 eV)
   122     122       --         0.397 au  O             1.00      2 P:y             5
                        (      10.809 eV)
   123     123       --         3.984 au  O             1.00      3 P:y             5
                        (     108.415 eV)
   124     124      1.333      -0.366 au  O             1.00      1 P:z             5
                        (      -9.963 eV)
   125     125       --         0.397 au  O             1.00      2 P:z             5
                        (      10.809 eV)
   126     126       --         3.984 au  O             1.00      3 P:z             5
                        (     108.415 eV)
   127     127       --         1.128 au  O             1.00      1 D:z2            5
                        (      30.700 eV)
   128     128       --         1.128 au  O             1.00      1 D:x2-y2         5
                        (      30.700 eV)
   129     129       --         1.128 au  O             1.00      1 D:xy            5
                        (      30.700 eV)
   130     130       --         1.128 au  O             1.00      1 D:xz            5
                        (      30.700 eV)
   131     131       --         1.128 au  O             1.00      1 D:yz            5
                        (      30.700 eV)
   132     132       --         3.446 au  O             1.00      1 F:z3            5
                        (      93.778 eV)
   133     133       --         3.446 au  O             1.00      1 F:z             5
                        (      93.778 eV)
   134     134       --         3.446 au  O             1.00      1 F:xyz           5
                        (      93.778 eV)
   135     135       --         3.446 au  O             1.00      1 F:z2x           5
                        (      93.778 eV)
   136     136       --         3.446 au  O             1.00      1 F:z2y           5
                        (      93.778 eV)
   137     137       --         3.446 au  O             1.00      1 F:x             5
                        (      93.778 eV)
   138     138       --         3.446 au  O             1.00      1 F:y             5
                        (      93.778 eV)
   139     139      1.000      -0.242 au  H             1.00      1 S               6
                        (      -6.582 eV)
   140     140       --         0.113 au  H             1.00      2 S               6
                        (       3.073 eV)
   141     141       --         1.599 au  H             1.00      3 S               6
                        (      43.507 eV)
   142     142       --         0.445 au  H             1.00      1 P:x             6
                        (      12.103 eV)
   143     143       --         0.445 au  H             1.00      1 P:y             6
                        (      12.103 eV)
   144     144       --         0.445 au  H             1.00      1 P:z             6
                        (      12.103 eV)
   145     145       --         2.628 au  H             1.00      1 D:z2            6
                        (      71.513 eV)
   146     146       --         2.628 au  H             1.00      1 D:x2-y2         6
                        (      71.513 eV)
   147     147       --         2.628 au  H             1.00      1 D:xy            6
                        (      71.513 eV)
   148     148       --         2.628 au  H             1.00      1 D:xz            6
                        (      71.513 eV)
   149     149       --         2.628 au  H             1.00      1 D:yz            6
                        (      71.513 eV)
   150     150      1.000      -0.242 au  H             1.00      1 S               7
                        (      -6.582 eV)
   151     151       --         0.113 au  H             1.00      2 S               7
                        (       3.073 eV)
   152     152       --         1.599 au  H             1.00      3 S               7
                        (      43.507 eV)
   153     153       --         0.445 au  H             1.00      1 P:x             7
                        (      12.103 eV)
   154     154       --         0.445 au  H             1.00      1 P:y             7
                        (      12.103 eV)
   155     155       --         0.445 au  H             1.00      1 P:z             7
                        (      12.103 eV)
   156     156       --         2.628 au  H             1.00      1 D:z2            7
                        (      71.513 eV)
   157     157       --         2.628 au  H             1.00      1 D:x2-y2         7
                        (      71.513 eV)
   158     158       --         2.628 au  H             1.00      1 D:xy            7
                        (      71.513 eV)
   159     159       --         2.628 au  H             1.00      1 D:xz            7
                        (      71.513 eV)
   160     160       --         2.628 au  H             1.00      1 D:yz            7
                        (      71.513 eV)
   161     161      1.000      -0.242 au  H             1.00      1 S               8
                        (      -6.582 eV)
   162     162       --         0.113 au  H             1.00      2 S               8
                        (       3.073 eV)
   163     163       --         1.599 au  H             1.00      3 S               8
                        (      43.507 eV)
   164     164       --         0.445 au  H             1.00      1 P:x             8
                        (      12.103 eV)
   165     165       --         0.445 au  H             1.00      1 P:y             8
                        (      12.103 eV)
   166     166       --         0.445 au  H             1.00      1 P:z             8
                        (      12.103 eV)
   167     167       --         2.628 au  H             1.00      1 D:z2            8
                        (      71.513 eV)
   168     168       --         2.628 au  H             1.00      1 D:x2-y2         8
                        (      71.513 eV)
   169     169       --         2.628 au  H             1.00      1 D:xy            8
                        (      71.513 eV)
   170     170       --         2.628 au  H             1.00      1 D:xz            8
                        (      71.513 eV)
   171     171       --         2.628 au  H             1.00      1 D:yz            8
                        (      71.513 eV)



 ================================
 (Slater-type)  F U N C T I O N S  ***  (Basis and Fit)  ***
 ================================
  

 Atom Type    1  (P)
 ==============

 Valence Basis Sets:  14
 -----------------------
   1 S   18.000000
   1 S   13.350000
   2 S    5.600000
   2 S    4.050000
   2 P    7.450000
   2 P    4.100000
   3 S    2.700000
   3 S    1.850000
   3 S    1.300000
   3 P    2.300000
   3 P    1.350000
   3 P    0.850000
   3 D    1.900000
   4 F    2.000000

 Charge Fitting Sets (for the computation of the Coulomb Potential):  30
 -----------------------------------------------------------------------
   1 S   36.000000
   1 S   21.450000
   2 S   23.670000
   2 S   15.860000
   3 S   15.600000
   3 S   11.130000
   3 S    7.940000
   4 S    7.490000
   4 S    5.560000
   4 S    4.130000
   5 S    3.810000
   5 S    2.910000
   5 S    2.230000
   5 S    1.700000
   2 P   25.450000
   3 P   18.490000
   4 P   13.440000
   4 P    7.810000
   5 P    5.730000
   5 P    3.510000
   5 P    2.150000
   3 D   19.350000
   4 D   13.230000
   4 D    7.250000
   5 D    5.040000
   5 D    2.930000
   5 D    1.700000
   4 F    5.000000
   4 F    3.000000
   5 G    3.750000

 Atom Type    2  (O)
 ==============

 Valence Basis Sets:  10
 -----------------------
   1 S    9.800000
   1 S    6.800000
   2 S    7.580000
   2 S    2.880000
   2 S    1.720000
   2 P    4.080000
   2 P    2.080000
   2 P    1.120000
   3 D    2.000000
   4 F    3.000000

 Charge Fitting Sets (for the computation of the Coulomb Potential):  22
 -----------------------------------------------------------------------
   1 S   19.600000
   2 S   22.600000
   2 S   15.680000
   2 S   10.890000
   2 S    7.560000
   3 S    7.690000
   3 S    5.650000
   3 S    4.150000
   3 S    3.050000
   3 S    2.240000
   2 P   12.860000
   2 P    7.680000
   3 P    6.780000
   3 P    4.390000
   3 P    2.840000
   3 D    8.800000
   3 D    5.580000
   3 D    3.530000
   3 D    2.240000
   4 F    6.200000
   4 F    3.700000
   5 G    4.500000

 Atom Type    3  (H)
 ==============

 Valence Basis Sets:   5
 -----------------------
   1 S    0.690000
   1 S    0.920000
   1 S    1.580000
   2 P    1.250000
   3 D    2.500000

 Charge Fitting Sets (for the computation of the Coulomb Potential):  11
 -----------------------------------------------------------------------
   1 S    3.160000
   1 S    2.090000
   1 S    1.380000
   2 S    1.500000
   2 P    4.000000
   2 P    2.650000
   2 P    1.750000
   3 D    4.000000
   3 D    2.500000
   4 F    3.000000
   5 G    4.000000


 BAS: List of all Elementary Cartesian Basis Functions
 =====================================================

 The numbering in the list below (to the right of the function characteristics) is referred
 to in print-outs of MO eigenvectors and Mulliken populations in the BAS representation
 (as contrasted to the SFO representation).

 Notes:
 1. The functions are characterized by a polynomial prefactor (powers of x,y,z and r) and
    an exponential decay factor alpha.
 2. Since the basis sets are specific for an atom TYPE, the individual functions occur on
    all atoms of that type.
 3. The word 'Core' in the left margin signals that it is a Core Function (CF) : not a
    degree of freedom in the valence set, but only used to ensure orthogonalization of
    the other valence basis functions on the frozen Core Orbitals.


 (power of) X  Y  Z  R     Alpha  on Atom
            ==========     =====     ==========

 P                                    1
                                  ---------------------------------------------------------------------------
            0  0  0  0    18.000      1
            0  0  0  0    13.350      2
            0  0  0  1     5.600      3
            0  0  0  1     4.050      4
            1  0  0  0     7.450      5
            0  1  0  0     7.450      6
            0  0  1  0     7.450      7
            1  0  0  0     4.100      8
            0  1  0  0     4.100      9
            0  0  1  0     4.100     10
            0  0  0  2     2.700     11
            0  0  0  2     1.850     12
            0  0  0  2     1.300     13
            1  0  0  1     2.300     14
            0  1  0  1     2.300     15
            0  0  1  1     2.300     16
            1  0  0  1     1.350     17
            0  1  0  1     1.350     18
            0  0  1  1     1.350     19
            1  0  0  1     0.850     20
            0  1  0  1     0.850     21
            0  0  1  1     0.850     22
            2  0  0  0     1.900     23
            1  1  0  0     1.900     24
            1  0  1  0     1.900     25
            0  2  0  0     1.900     26
            0  1  1  0     1.900     27
            0  0  2  0     1.900     28
            3  0  0  0     2.000     29
            2  1  0  0     2.000     30
            2  0  1  0     2.000     31
            1  2  0  0     2.000     32
            1  1  1  0     2.000     33
            1  0  2  0     2.000     34
            0  3  0  0     2.000     35
            0  2  1  0     2.000     36
            0  1  2  0     2.000     37
            0  0  3  0     2.000     38

 O                                    2    3    4    5
                                  ---------------------------------------------------------------------------
            0  0  0  0     9.800     39   69   99  129
            0  0  0  0     6.800     40   70  100  130
            0  0  0  1     7.580     41   71  101  131
            0  0  0  1     2.880     42   72  102  132
            0  0  0  1     1.720     43   73  103  133
            1  0  0  0     4.080     44   74  104  134
            0  1  0  0     4.080     45   75  105  135
            0  0  1  0     4.080     46   76  106  136
            1  0  0  0     2.080     47   77  107  137
            0  1  0  0     2.080     48   78  108  138
            0  0  1  0     2.080     49   79  109  139
            1  0  0  0     1.120     50   80  110  140
            0  1  0  0     1.120     51   81  111  141
            0  0  1  0     1.120     52   82  112  142
            2  0  0  0     2.000     53   83  113  143
            1  1  0  0     2.000     54   84  114  144
            1  0  1  0     2.000     55   85  115  145
            0  2  0  0     2.000     56   86  116  146
            0  1  1  0     2.000     57   87  117  147
            0  0  2  0     2.000     58   88  118  148
            3  0  0  0     3.000     59   89  119  149
            2  1  0  0     3.000     60   90  120  150
            2  0  1  0     3.000     61   91  121  151
            1  2  0  0     3.000     62   92  122  152
            1  1  1  0     3.000     63   93  123  153
            1  0  2  0     3.000     64   94  124  154
            0  3  0  0     3.000     65   95  125  155
            0  2  1  0     3.000     66   96  126  156
            0  1  2  0     3.000     67   97  127  157
            0  0  3  0     3.000     68   98  128  158

 H                                    6    7    8
                                  ---------------------------------------------------------------------------
            0  0  0  0     0.690    159  171  183
            0  0  0  0     0.920    160  172  184
            0  0  0  0     1.580    161  173  185
            1  0  0  0     1.250    162  174  186
            0  1  0  0     1.250    163  175  187
            0  0  1  0     1.250    164  176  188
            2  0  0  0     2.500    165  177  189
            1  1  0  0     2.500    166  178  190
            1  0  1  0     2.500    167  179  191
            0  2  0  0     2.500    168  180  192
            0  1  1  0     2.500    169  181  193
            0  0  2  0     2.500    170  182  194

 Total number of charge fitting functions (nprimf)       592
 Total number of Cartesian basis functions (naos)        194
 Total number of Cartesian core functions  (ncos)          0

1
 ***************************************************************************************************



                                              ***********************
                                              *  T E C H N I C A L  *
                                              ***********************
  



 =============================================================
 P A R A L L E L I Z A T I O N  and  V E C T O R I Z A T I O N
 =============================================================
  
 Nr of parallel processes:                               12
 Maximum vector length in NumInt loops:                 128



 =====================
 S C F   U P D A T E S
 =====================
  
 Max. nr. of cycles:                               300
 Convergence criterion:                              0.0000010000
   secondary criterion:                              0.0010000000

 Mix parameter (when DIIS does not apply):           0.2000000000
 Mixed ADIIS+SDIIS will be used                  
    Max number of expansion vectors:                10
    Pure ADIIS when Max([F,P]) is above              0.1000000000
    Pure SDIIS when Max([F,P]) is below              0.0010000000
 Automatic ElectronSmearing (in case of problematic SCF convergence) disabled



 =================
 P R E C I S I O N  ***  (General: NumInt, NeglectFunctionTails, ...)  ***
 =================
  

 NumInt:           Target precision:                 6.0000000000
 -------           Initial precision:                6.0000000000
                   Min. precision (optimization):    6.0000000000

 Neglect Functions:          Basis functions:        0.1000000000E-07
 ------------------          Fit functions:          0.1000000000E-07



 ===========================
 L I N E A R   S C A L I N G
 ===========================
  

 Cut-off radii density fit:                        0.1000000000E-09
 Overlap cut-off criterion AO matrix elements:     0.1000000000E-07
 Cut-offs for Coulomb potential and fitted density:0.1000000000E-09
 Cut-off criterion for Coulomb multipole terms:    0.1000000000E-09
 Progressive Convergence parameter:                 0.000000000    

 Number of elements of the density matrix on this node (used, total):      1821     18915



 ===========================================
 Numerical Integration : Fuzzy Cells (Becke)
 ===========================================
  
 Becke grid quality: GOOD           
  
 Lebedev angular grid order:             min:  11 max:  31
 Nr. of radial points:                   min:  54 max:  76

 Total nr. of points:     101648
 Nr. of blocks:              795
 Block length:               128
 Nr. of dummy points:        112


 Test of Precision of the Numerical Integration Grid
 ===================================================

 Integral of the Total Core Density:                   0.00000000000000


 -------------------------------------------
  COSMO surface
  Area             =          351.737
  Volume           =          525.957
  Number of Points =          943
 -------------------------------------------



 ========================
 Density Fitting (zlmFit)
 ========================
  
 ZlmFit Fit Quality: GOOD           
  
 Max L-expansion:                        min:   8 max:   9
 Nr. of radial interpolation points:     min:  78 max: 126



 ======================
 RI Hartree-Fock Scheme
 ======================
  
 Fit Set Quality     : GOOD
 Integration Quality : GOOD
 Threshold Quality   : GOOD
 Response Quality    : DEFAULT
 Is Range Separated  :  F
 
 RIHartreeFock Dependency: number of modified vectors:           3



 =====
 S C F  ***  ScaSCF  ***
 =====
  
 Initial density matrix is taken from previous geometry

 CYCLE    1
  ***********************************************************
  ** : orbital data taken from :/tmp/amstmp_ams_kid0.1723460289/GOStep5.rkf
  ***********************************************************
 SCF Error: norm([F,P])=      0.061605050573, max([F,P])=      0.014668838316
 orbitals (Q,E):
 ---------------
 A :16...35          ( 2.00    -0.5956)  ( 2.00    -0.5009)  ( 2.00    -0.4651)  ( 2.00    -0.4651)
                     ( 2.00    -0.4150)  ( 2.00    -0.4150)  ( 2.00    -0.3933)  ( 2.00    -0.3757)
                     ( 2.00    -0.3159)  ( 2.00    -0.3159)  ( 0.00    -0.0156)  ( 0.00     0.0248)
                     ( 0.00     0.0248)  ( 0.00     0.1056)  ( 0.00     0.1255)  ( 0.00     0.1255)
                     ( 0.00     0.1403)  ( 0.00     0.1687)  ( 0.00     0.1687)  ( 0.00     0.1727)

 CYCLE    2
  SDIIS (wt  0.000):  0.6282  0.3718
 A-DIIS (wt  1.000):  0.6444  0.3556
  DIIS coefficients:  0.6444  0.3556
 SCF Error: norm([F,P])=      0.099865858087, max([F,P])=      0.028976092970
 orbitals (Q,E):
 ---------------
 A :16...26          ( 2.00    -0.5928)  ( 2.00    -0.5059)  ( 2.00    -0.4658)  ( 2.00    -0.4658)
                     ( 2.00    -0.4146)  ( 2.00    -0.4146)  ( 2.00    -0.4019)  ( 2.00    -0.3785)
                     ( 2.00    -0.3279)  ( 2.00    -0.3279)  ( 0.00    -0.0105)

 CYCLE    3
  SDIIS (wt  0.000):  0.4382  0.1409  0.4210
 A-DIIS (wt  1.000):  0.3163  0.0000  0.6837
  DIIS coefficients:  0.3163  0.0000  0.6837
 SCF Error: norm([F,P])=      0.040184516310, max([F,P])=      0.009605818072
 orbitals (Q,E):
 ---------------
 A :16...26          ( 2.00    -0.5914)  ( 2.00    -0.5072)  ( 2.00    -0.4660)  ( 2.00    -0.4660)
                     ( 2.00    -0.4144)  ( 2.00    -0.4144)  ( 2.00    -0.4037)  ( 2.00    -0.3785)
                     ( 2.00    -0.3290)  ( 2.00    -0.3290)  ( 0.00    -0.0062)

 CYCLE    4
  SDIIS (wt  0.922): -0.3177  0.1820  1.1357
 A-DIIS (wt  0.078):  0.0000  0.0000  1.0000
  DIIS coefficients: -0.2928  0.1678  1.1251
 SCF Error: norm([F,P])=      0.027982812728, max([F,P])=      0.008730575805
 orbitals (Q,E):
 ---------------
 A :16...26          ( 2.00    -0.5891)  ( 2.00    -0.5100)  ( 2.00    -0.4658)  ( 2.00    -0.4658)
                     ( 2.00    -0.4132)  ( 2.00    -0.4132)  ( 2.00    -0.4092)  ( 2.00    -0.3776)
                     ( 2.00    -0.3361)  ( 2.00    -0.3361)  ( 0.00    -0.0022)

 CYCLE    5
  SDIIS (wt  0.987): -0.1011 -0.0644  0.5348  0.6306
 A-DIIS (wt  0.013):  0.0000  0.0000  0.0000  1.0000
  DIIS coefficients: -0.0998 -0.0636  0.5279  0.6355
 SCF Error: norm([F,P])=      0.011670347734, max([F,P])=      0.002288511854
 orbitals (Q,E):
 ---------------
 A :16...26          ( 2.00    -0.5903)  ( 2.00    -0.5103)  ( 2.00    -0.4668)  ( 2.00    -0.4668)
                     ( 2.00    -0.4143)  ( 2.00    -0.4143)  ( 2.00    -0.4090)  ( 2.00    -0.3788)
                     ( 2.00    -0.3355)  ( 2.00    -0.3355)  ( 0.00    -0.0023)

 CYCLE    6
  SDIIS (wt  1.000): -0.0010 -0.0532  0.0851  0.3181  0.6509
  DIIS coefficients: -0.0010 -0.0532  0.0851  0.3181  0.6509
 SCF Error: norm([F,P])=      0.003820434004, max([F,P])=      0.000621321754
 orbitals (Q,E):
 ---------------
 A :16...26          ( 2.00    -0.5901)  ( 2.00    -0.5102)  ( 2.00    -0.4665)  ( 2.00    -0.4665)
                     ( 2.00    -0.4141)  ( 2.00    -0.4141)  ( 2.00    -0.4089)  ( 2.00    -0.3785)
                     ( 2.00    -0.3354)  ( 2.00    -0.3354)  ( 0.00    -0.0022)

 CYCLE    7
  SDIIS (wt  1.000):  0.0011  0.0003 -0.0103  0.0219  0.0879  0.8990
  DIIS coefficients:  0.0011  0.0003 -0.0103  0.0219  0.0879  0.8990
 SCF Error: norm([F,P])=      0.000418034045, max([F,P])=      0.000098706911
 orbitals (Q,E):
 ---------------
 A :16...26          ( 2.00    -0.5901)  ( 2.00    -0.5102)  ( 2.00    -0.4665)  ( 2.00    -0.4665)
                     ( 2.00    -0.4141)  ( 2.00    -0.4141)  ( 2.00    -0.4089)  ( 2.00    -0.3785)
                     ( 2.00    -0.3354)  ( 2.00    -0.3354)  ( 0.00    -0.0022)

 CYCLE    8
  SDIIS (wt  1.000):  0.0002  0.0017 -0.0054 -0.0000  0.0147  0.3416  0.6472
  DIIS coefficients:  0.0002  0.0017 -0.0054 -0.0000  0.0147  0.3416  0.6472
 SCF Error: norm([F,P])=      0.000110284323, max([F,P])=      0.000018869290
 orbitals (Q,E):
 ---------------
 A :16...26          ( 2.00    -0.5901)  ( 2.00    -0.5102)  ( 2.00    -0.4665)  ( 2.00    -0.4665)
                     ( 2.00    -0.4141)  ( 2.00    -0.4141)  ( 2.00    -0.4089)  ( 2.00    -0.3785)
                     ( 2.00    -0.3354)  ( 2.00    -0.3354)  ( 0.00    -0.0022)

 CYCLE    9
  SDIIS (wt  1.000):  0.0000  0.0000 -0.0002 -0.0009 -0.0014  0.0146  0.1437  0.8441
  DIIS coefficients:  0.0000  0.0000 -0.0002 -0.0009 -0.0014  0.0146  0.1437  0.8441
 SCF Error: norm([F,P])=      0.000019170091, max([F,P])=      0.000004454792
 orbitals (Q,E):
 ---------------
 A :16...26          ( 2.00    -0.5901)  ( 2.00    -0.5102)  ( 2.00    -0.4665)  ( 2.00    -0.4665)
                     ( 2.00    -0.4141)  ( 2.00    -0.4141)  ( 2.00    -0.4089)  ( 2.00    -0.3785)
                     ( 2.00    -0.3354)  ( 2.00    -0.3354)  ( 0.00    -0.0022)

 CYCLE   10
  SDIIS (wt  1.000):  0.0000 -0.0000  0.0001 -0.0002 -0.0007 -0.0052  0.0126  0.1478  0.8457
  DIIS coefficients:  0.0000 -0.0000  0.0001 -0.0002 -0.0007 -0.0052  0.0126  0.1478  0.8457
 SCF Error: norm([F,P])=      0.000001795833, max([F,P])=      0.000000482025
 orbitals (Q,E):
 ---------------
 A :16...26          ( 2.00    -0.5901)  ( 2.00    -0.5102)  ( 2.00    -0.4665)  ( 2.00    -0.4665)
                     ( 2.00    -0.4141)  ( 2.00    -0.4141)  ( 2.00    -0.4089)  ( 2.00    -0.3785)
                     ( 2.00    -0.3354)  ( 2.00    -0.3354)  ( 0.00    -0.0022)

 SCF CONVERGED
 cosmo_calcen: 0.5 (esolb+esolc) (Hartrees) =   -0.020607

 Solvation energy (screening term,uncorrected) =    -12.930882 kcal/mol

 Solvation energy (dispersion and cavitation terms) =      0.527424 kcal/mol
 Solvation Energy Contributions (Hartrees)
          esola   esolb+esolc
     0.02060667   -0.04121334
 esol last cycle   -0.02060667

 CYCLE   11
1
 ***************************************************************************************************



                                                *******************
                                                *  R E S U L T S  *
                                                *******************
  
  
 Hartree-Fock exchange energy:   -56.8415453864237     
 *** Using FIT density in Focky
  SDIIS (wt  1.000):  0.0000 -0.0000  0.0000 -0.0000 -0.0001 -0.0010 -0.0025  0.0011  0.1090  0.8935
  DIIS coefficients:  0.0000 -0.0000  0.0000 -0.0000 -0.0001 -0.0010 -0.0025  0.0011  0.1090  0.8935
 SCF Error: norm([F,P])=      0.000000324927, max([F,P])=      0.000000062502

 Orbital Energies, per Irrep and Spin:
 ======================================
                        Occup              E (au)              E (eV)       Diff (eV) with prev. cycle
                        -----      --------------------        ------       --------------------------
 A
              16        2.000     -0.59012735358792E+00       -16.058              -6.55E-08
              17        2.000     -0.51016402365066E+00       -13.882              -5.94E-07
              18        2.000     -0.46651698109384E+00       -12.695               4.52E-08
              19        2.000     -0.46651571542283E+00       -12.695              -9.58E-07
[...]
    9   adf1                                      0          9         -1
   10   adf1                                      0         10         -1
   11   adf1                                      0         11         -1
 ==============================================================================


May use up to 22932MB of RAM as shared memory on node 0
 
NMR
    out    iso    tens
    adfgui
    Atoms 1
    u1k best
    calc all
End

 *******************************************************************************
 *                                                                             *
 *  --------------------------------                                           *
 *   Amsterdam Modeling Suite (AMS)              2020.202                      *
 *  --------------------------------                                           *
 *                                               r90167 2020-12-05             *
 *                                                                             *
 *                                                                             *
 *                              =================                              *
 *                              |               |                              *
 *                              |     N M R     |                              *
 *                              |               |                              *
 *                              =================                              *
 *                                                                             *
 *                                                                             *
 *   Online information and documentation:  https://www.scm.com/support/       *
 *   E-mail:  support@scm.com   info@scm.com                                   *
 *                                                                             *
 *   Scientific publications using AMS results must be properly referenced     *
 *   See the User Manuals (or the web site) for recommended citations          *
 *   The terms and conditions of the End User License Agreement apply to       *
 *   the use of AMS, https://www.scm.com/license-terms/                        *
 *                                                                             *
 **********************  x86_64_linux_intel / intelmpi  ************************
 
 Licensed to: Dr. Miroslav Ilias / Matej Bel University, Department Chemistry, Fac. Natural Sciences / Banska Bystrica / SLOVAKIA
 SCM User ID: u17848
  
 NMR 2020.202  RunTime: Feb15-2021 18:07:52  Nodes: 1  Procs: 12

 Temporary files are created in /tmp/kid_0.1497188046 (0xEF53)


 Communication costs MPI_COMM_WORLD:      2.746 usec per message,   0.0269 usec per 8-byte item
 Communication costs for intra-node:      2.654 usec per message,   0.0271 usec per 8-byte item




 ======================
 RI Hartree-Fock Scheme
 ======================
  
 Fit Set Quality     : GOOD
 Integration Quality : GOOD
 Threshold Quality   : GOOD
 Response Quality    : DEFAULT
 Is Range Separated  :  F
 
 RIHartreeFock Dependency: number of modified vectors:           0
                    
                      **********************************    
                      ||******************************||    
                      ||                              ||    
                      ||  ##   ##  ###  ###  ######   ||    
                      ||  ###  ##  ########  ##   ##  ||    
                      ||  #### ##  ## ## ##  ######   ||    
                      ||  ## ####  ##    ##  ## ##    ||    
                      ||  ##  ###  ##    ##  ##  ##   ||    
                      ||  ##   ##  ##    ##  ##   ##  ||    
                      ||                              ||    
                      | ****************************** |    
                      **********************************    
                    
                            Written for ADF by              
                    
                    Stephen K. Wolff & Georg Schreckenbach  
                    
                      The research group of Tom Ziegler     
                            University of Calgary           
                               Alberta, Canada              
                    
                      Speedups, NBO analysis, g-tensors,    
                       full ZORA SO, and other goodies by   
                         Jochen Autschbach, SUNY Buffalo
                    
 =============================
 NMR Chemical shift References
 =============================
  
 Lead:
 G. Schreckenbach, T. Ziegler, J. Phys. Chem. 99 (1995) 606
  
 Speed-ups:
 J. Autschbach, E. Zurek, J. Phys. Chem. A 107 (2003), 4967
  
 Hybrids:
 M. Krykunov, T. Ziegler, E. van Lenthe, Int. J. of Quantum Chem. 109, 1676 (2009)
  
 Spin-orbit coupling:
 S.K. Wolff, T. Ziegler, E. van Lenthe, E.J. Baerends, J. Chem. Phys. 110, 7689 (1999)
 J. Autschbach, Mol. Phys. 111 (2013), 2544
  
 Paramagnetic:
 J. Autschbach, S. Patchkovskii, B. Pritchard, J. Chem. Theory Comput. 7, 2175 (2011)
  
 NBO analysis:
 J. Autschbach, J. Chem. Phys. 128 (2008), 164112
 J. Autschbach, S. Zheng, Magn. Reson. Chem. 46 (2008), S48
  
 Suggested:
 G. Schreckenbach, T. Ziegler, Int. J. Quantum Chem. 60, 753 (1996)
 G. Schreckenbach, T. Ziegler, Int. J. Quantum Chem. 61 (1997) 899
 S.K. Wolff, T. Ziegler, J. Chem. Phys. 109 (1998) 895
  
 =======================
 ESR g-tensor References
 =======================
  
 Lead:
 J. Autschbach, B. Pritchard, Theor. Chem. Acc. 129 (2011), 453
  
 Suggested:
 G. Schreckenbach, T. Ziegler, J. Phys. Chem. A 101, 3388 (1997)
 
################################################################################
 
 
################################################################################
 
 
              <><><><><><><><><><><><><><><><><><><><><><><><><>
 
                 GENERAL ADF INFORMATION:
                 ------------------------
 
                 TITLE:    *** adf ***                                  
 JOB ID:     1723460289
                 NONLXC:                                                
                 SYMMETRY: NOSYM                                        
                  
                 IOPREL:   0
                 ------>  non-rel. (Re MOs)
 
              <><><><><><><><><><><><><><><><><><><><><><><><><>
 
              ==================================================
 
                 NUCLEAR COORDINATES (ANGSTROMS):
                 --------------------------------
 
                 P  (  1):      -0.0000      0.0000     -0.1589
                 O  (  2):      -1.3762     -0.3450      0.5309
                 O  (  3):       0.9869     -1.0193      0.5309
                 O  (  4):       0.3893      1.3643      0.5309
                 O  (  5):      -0.0000      0.0000     -1.6250
                 H  (  6):      -2.1398      0.0139      0.0638
                 H  (  7):       1.0579     -1.8601      0.0638
                 H  (  8):       1.0819      1.8462      0.0638
 
              ==================================================
 
              <><><><><><><><><><><><><><><><><><><><><><><><><>
 
                 NUMBERS:
                 --------
 
                 number of electrons:     50.00
 
                 ---   AOs   ---          ---   MOs   ---
                 ncor =     0             nocc =    25
                 nval =   194             nvir =   146
                 nbas =   194             nmo  =   171
                 naos =   194             nsot =   171
              ==================================================
                  
                 --------------------------
                     ATOM TYPE: P                        
                 --------------------------
                 === BASIS
                   1S   18.00     VALENCE
                   1S   13.35     VALENCE
                   2S    5.60     VALENCE
                   2S    4.05     VALENCE
                   2P    7.45     VALENCE
                   2P    4.10     VALENCE
                   3S    2.70     VALENCE
                   3S    1.85     VALENCE
                   3S    1.30     VALENCE
                   3P    2.30     VALENCE
                   3P    1.35     VALENCE
                   3P    0.85     VALENCE
                   3D    1.90     VALENCE
                   4F    2.00     VALENCE
                  
                 --------------------------
                     ATOM TYPE: O                        
                 --------------------------
                 === BASIS
                   1S    9.80     VALENCE
                   1S    6.80     VALENCE
                   2S    7.58     VALENCE
                   2S    2.88     VALENCE
                   2S    1.72     VALENCE
                   2P    4.08     VALENCE
                   2P    2.08     VALENCE
                   2P    1.12     VALENCE
                   3D    2.00     VALENCE
                   4F    3.00     VALENCE
                  
                 --------------------------
                     ATOM TYPE: H                        
                 --------------------------
                 === BASIS
                   1S    0.69     VALENCE
                   1S    0.92     VALENCE
                   1S    1.58     VALENCE
                   2P    1.25     VALENCE
                   3D    2.50     VALENCE
                  
              ==================================================
              <><><><><><><><><><><><><><><><><><><><><><><><><>
 
                 TENSOR INFORMATION:
                 -------------------
 
                              CALC                   U1K
 
                 paramagnetic  = T     mass-velocity = F
                 diamagnetic   = T     Darwin        = F
                 Fermi-cont.   = F     Zeeman        = F
                 ZORA SO       = F     ZORA SO       = F
                 ZORA SCALE    = F     ZORA SO FULL  = F
                 ZORA SO 1C    = F     E IN U1 SCL   = F
 
              <><><><><><><><><><><><><><><><><><><><><><><><><>
 
              <><><><><><><><><><><><><><><><><><><><><><><><><>
 
                 OUTPUT SWITCHES:
                 ----------------
 
                           ISO = T                F1 = F
                          TENS = T                S1 = F
                           EIG = F                U1 = F
                           AOP = F                B1 = F
                           AOD = F                F  = F
                           AOF = F                 S = F
                          INFO = F              REFS = F
 
              <><><><><><><><><><><><><><><><><><><><><><><><><>
 
              --------------------------------------------------
 
                 CALCULATE THE POTENTIAL? F
                  
                 ---> Potential is already on TAPE10.
                      It will not be re-calculated.
 
              --------------------------------------------------



 ===========================
 L I N E A R   S C A L I N G
 ===========================
  

 Overlap cut-off criterion AO matrix elements:     0.1000000000E-07
 ========================
 STARTING A NEW SCF. Step            1
 CRIT   1.00000000000000     
 CRIT   1.00000000000000     
 CRIT   1.00000000000000     
 ========================
 STARTING A NEW SCF. Step            2
 CRIT   2.71972844481352     
 CRIT   2.72340118109457     
 CRIT   2.19050017720275     
 ========================
 STARTING A NEW SCF. Step            3
 CRIT  0.181348882258601     
 CRIT  0.181537184575447     
 CRIT  0.171717939080497     
 ========================
 STARTING A NEW SCF. Step            4
 CRIT  1.151234563680173E-002
 CRIT  1.153117619708932E-002
 CRIT  1.079729343090860E-002
 ========================
 STARTING A NEW SCF. Step            5
 CRIT  8.024875711431899E-004
 CRIT  8.035063768202512E-004
 CRIT  7.709422893852784E-004
 ========================
 STARTING A NEW SCF. Step            6
 CRIT  5.139444292054298E-005
 CRIT  5.135592867252038E-005
 CRIT  5.201419678592160E-005
 ========================
 STARTING A NEW SCF. Step            7
 CRIT  2.826521493756928E-006
 CRIT  2.820265026579850E-006
 CRIT  3.004238071176919E-006
 ========================
 STARTING A NEW SCF. Step            8
 CRIT  1.597322810304959E-007
 CRIT  1.596447618028226E-007
 CRIT  1.825296716227444E-007
################################################################################
********************************************************************************
****  N U C L E U S : P(1)
 
 ADF-GUI atom: P(1)
 Internal NMR numbering of atoms: P(1)
 
 
================================================================================
 
 
===  PARAMAGNETIC NMR SHIELDING TENSORS (ppm)
 
    ===     paramagnetic b^(1) tensor       ===     paramagnetic u^(1) tensor
    -----------------------------------     -----------------------------------
           0.000     0.000     0.000            -618.840    -0.002    -0.009
           0.000     0.000     0.000              -0.002  -618.812    -0.003
           0.000     0.000     0.000              -0.009    -0.003  -465.723
    -----------------------------------     -----------------------------------
              isotropic =      0.000                  isotropic =   -567.791

    ===     paramagnetic s^(1) tensor       ===     paramagnetic gauge tensor
    -----------------------------------     -----------------------------------
         -75.638     0.001     0.006              -4.112     0.000    -0.000
           0.001   -75.634     0.010               0.000    -4.112     0.000
           0.006     0.010   -45.835              -0.000     0.000    -2.318
    -----------------------------------     -----------------------------------
              isotropic =    -65.702                  isotropic =     -3.514

                        ***********************************
                        CARTESIAN AXIS REPRESENTATION

                        ==== total paramagnetic tensor
                        -----------------------------------
                            -698.590    -0.001    -0.003
                              -0.001  -698.558     0.007
                              -0.003     0.007  -513.875
                        -----------------------------------
                                  isotropic =   -637.008

                        ***********************************
                        -----------------------------------
                        PRINCIPAL AXIS REPRESENTATION

                        ==== Principal components:

                            -698.590  -698.558  -513.875
 
                        ==== Principal Axis System:

                               1.000     0.021    -0.000
                               0.021    -1.000     0.000
                               0.000     0.000     1.000
                        -----------------------------------
 
================================================================================
 
 
===  DIAMAGNETIC NMR SHIELDING TENSORS (ppm)
 
    ===       diamagnetic core tensor       ===    diamagnetic valence tensor
    -----------------------------------     -----------------------------------
           0.000     0.000     0.000             961.017    -0.001     0.001
           0.000     0.000     0.000              -0.001   961.016    -0.001
           0.000     0.000     0.000               0.001    -0.001   958.798
    -----------------------------------     -----------------------------------
              isotropic =      0.000                  isotropic =    960.277

                        ***********************************
                        CARTESIAN AXIS REPRESENTATION

                        ==== total diamagnetic tensor
                        -----------------------------------
                             961.017    -0.001     0.001
                              -0.001   961.016    -0.001
                               0.001    -0.001   958.798
                        -----------------------------------
                                  isotropic =    960.277

                        ***********************************
                        -----------------------------------
                        PRINCIPAL AXIS REPRESENTATION

                        ==== Principal components:

                             958.798   961.015   961.018
 
                        ==== Principal Axis System:

                              -0.001     0.554     0.832
                               0.000     0.832    -0.554
                               1.000     0.000     0.001
                        -----------------------------------
 
================================================================================
 
 
===  TOTAL NMR SHIELDING TENSOR (ppm)
 
                        ***********************************
                        CARTESIAN AXIS REPRESENTATION

                        ==== total shielding tensor
                        -----------------------------------
                             262.427    -0.002    -0.002
                              -0.002   262.458     0.006
                              -0.002     0.006   444.923
                        -----------------------------------
                                  isotropic =    323.269

                        ***********************************
                        -----------------------------------
                        PRINCIPAL AXIS REPRESENTATION

                        ==== Principal components:

                             262.427   262.458   444.923
 
                        ==== Principal Axis System:

                               0.999     0.052    -0.000
                               0.052    -0.999     0.000
                               0.000     0.000     1.000
                        -----------------------------------
 *******************************************************************************

                             N M R   E X I T
 NORMAL TERMINATION



 =================
 Timing Statistics
 =================
  
 Total Used :                     CPU=       31.14      System=        1.42     Elapsed=       33.55

 Calls  Section                     ( Mean, Percentage )
 ---------------------------------------------------------------------------------------------------
     3  ><      ................      0.00    0.03             0.00    0.03             0.00    0.03
     1  INIT    ................      0.51    1.63             0.02    1.18             0.53    1.56
     1  RDEIGX  ................     17.14   55.05             0.43   30.54            18.23   54.33
     1  AOF1K   ................      0.59    1.88             0.01    0.43             0.59    1.77
     1  AOPKK   ................     12.09   38.82             0.96   67.46            13.30   39.64
     1  XSIGP   ................      0.01    0.02             0.00    0.00             0.01    0.02
     1  AODKKK  ................      0.80    2.57             0.00    0.07             0.88    2.63
     1  XDV     ................      0.00    0.00             0.00    0.00             0.00    0.00
     1  XSIGD   ................      0.00    0.00             0.00    0.00             0.00    0.00
     1  EXIT PROCEDURE .........      0.00    0.01             0.00    0.28             0.01    0.03


 Currently Open Files (EXIT00)
 ====================

 Unit    Access Format  Status   Type       Ident (file)
 -------------------------------------------------------
   3      SEQ    FORM   TRANSP  NORMAL      LOGFILE
                                          ( /home/milias/Work/projects/open-collection/theoretical_chemistry/projects/nmr_diplomovky/reference_compounds/phosphoric_acid/ams/pbe0_tz2p_good/cosmo-chcl3/phosporic_acid.geopt_freq_nmrshield_pbe0_tz2p_good_cosmo-chcl3.logfile )
