      -----------------------------------------------------------      
     |                   =====================                   |     
     |                           x T B                           |     
     |                   =====================                   |     
     |                         S. Grimme                         |     
     |          Mulliken Center for Theoretical Chemistry        |     
     |                    University of Bonn                     |     
      -----------------------------------------------------------      

   * xtb version 6.7.1 (edcfbbe) compiled by 'albert@albert-system' on 2024-07-22

   xtb is free software: you can redistribute it and/or modify it under
   the terms of the GNU Lesser General Public License as published by
   the Free Software Foundation, either version 3 of the License, or
   (at your option) any later version.
   
   xtb is distributed in the hope that it will be useful,
   but WITHOUT ANY WARRANTY; without even the implied warranty of
   MERCHANTABILITY or FITNESS FOR A PARTICULAR PURPOSE.  See the
   GNU Lesser General Public License for more details.
   
   Cite this work as:
   * C. Bannwarth, E. Caldeweyher, S. Ehlert, A. Hansen, P. Pracht,
     J. Seibert, S. Spicher, S. Grimme, WIREs Comput. Mol. Sci., 2020, 11,
     e01493. DOI: 10.1002/wcms.1493
   
   for GFN2-xTB:
   * C. Bannwarth, S. Ehlert and S. Grimme., J. Chem. Theory Comput., 2019,
     15, 1652-1671. DOI: 10.1021/acs.jctc.8b01176
   for GFN1-xTB:
   * S. Grimme, C. Bannwarth, P. Shushkov, J. Chem. Theory Comput., 2017,
     13, 1989-2009. DOI: 10.1021/acs.jctc.7b00118
   for GFN0-xTB:
   * P. Pracht, E. Caldeweyher, S. Ehlert, S. Grimme, ChemRxiv, 2019, preprint.
     DOI: 10.26434/chemrxiv.8326202.v1
   for GFN-FF:
   * S. Spicher and S. Grimme, Angew. Chem. Int. Ed., 2020, 59, 15665-15673.
     DOI: 10.1002/anie.202004239
   
   for ALPB and GBSA implicit solvation:
   * S. Ehlert, M. Stahn, S. Spicher, S. Grimme, J. Chem. Theory Comput.,
     2021, 17, 4250-4261. DOI: 10.1021/acs.jctc.1c00471
   
   for ddCOSMO and CPCM-X implicit solvation:
   * M. Stahn, S. Ehlert, S. Grimme, J. Phys. Chem. A,
     2023, XX, XXXX-XXXX. DOI: 10.1021/acs.jpca.3c04382
   
   for DFT-D4:
   * E. Caldeweyher, C. Bannwarth and S. Grimme, J. Chem. Phys., 2017,
     147, 034112. DOI: 10.1063/1.4993215
   * E. Caldeweyher, S. Ehlert, A. Hansen, H. Neugebauer, S. Spicher,
     C. Bannwarth and S. Grimme, J. Chem. Phys., 2019, 150, 154122.
     DOI: 10.1063/1.5090222
   * E. Caldeweyher, J.-M. Mewes, S. Ehlert and S. Grimme, Phys. Chem. Chem. Phys.
     2020, 22, 8499-8512. DOI: 10.1039/D0CP00502A
   
   for sTDA-xTB:
   * S. Grimme and C. Bannwarth, J. Chem. Phys., 2016, 145, 054103.
     DOI: 10.1063/1.4959605
   
   in the mass-spec context:
   * V. Asgeirsson, C. Bauer and S. Grimme, Chem. Sci., 2017, 8, 4879.
     DOI: 10.1039/c7sc00601b
   * J. Koopman and S. Grimme, ACS Omega 2019, 4, 12, 15120-15133.
     DOI: 10.1021/acsomega.9b02011
   
   for metadynamics refer to:
   * S. Grimme, J. Chem. Theory Comput., 2019, 155, 2847-2862
     DOI: 10.1021/acs.jctc.9b00143
   
   for SPH calculations refer to:
   * S. Spicher and S. Grimme, J. Chem. Theory Comput., 2021, 17, 1701-1714
     DOI: 10.1021/acs.jctc.0c01306
   
   for ONIOM refer to:
   * C. Plett, A. Katbashev, S. Ehlert, S. Grimme, M. Bursch,
     Phys. Chem. Chem. Phys., 2023, 25, 17860-17868. DOI: 10.1039/D3CP02178E
   
   for DIPRO refer to:
   * J. Kohn, N. Gildemeister, S. Grimme, D. Fazzi, A. Hansen,
     J. Chem. Phys., 2023, just accepted.
   
   for PTB refer to:
   * S. Grimme, M. Mueller, A. Hansen, J. Chem. Phys., 2023, 158, 124111.
     DOI: 10.1063/5.0137838
   
   with help from (in alphabetical order)
   P. Atkinson, C. Bannwarth, F. Bohle, G. Brandenburg, E. Caldeweyher
   M. Checinski, S. Dohm, S. Ehlert, S. Ehrlich, I. Gerasimov, C. Hölzer
   A. Katbashev, J. Kohn, J. Koopman, C. Lavigne, S. Lehtola, F. März, M. Müller,
   F. Musil, H. Neugebauer, J. Pisarek, C. Plett, P. Pracht, F. Pultar,
   J. Seibert, P. Shushkov, S. Spicher, M. Stahn, M. Steiner, T. Strunk,
   J. Stückrath, T. Rose, and J. Unsleber
   
 * started run on 2024/11/26 at 21:09:31.358     
   ID    Z sym.   atoms
    1    6 C      1-24
    2    1 H      25-48

           -------------------------------------------------
          |                Calculation Setup                |
           -------------------------------------------------

          program call               : xtb benzene.coord --opt --nocellopt --gfnff
          coordinate file            : benzene.coord
          omp threads                :                    20


molecular fragmentation (1/2 indicates fragments):
122222222222222222111122222222222222222221211122
# atoms in fragment 1/2:     9    39
 fragment masses (1/2) :       64.09      248.36
CMA distance (Bohr)    :   7.172
constraining FC (au)   :  0.0500
          GFN-FF topology read from file successfully!
           ------------------------------------------------- 
          |                   G F N - F F                   |
          |          A general generic force-field          |
          |                  Version 1.0.3                  | 
           ------------------------------------------------- 
          Number of HB bonds (bound hydrogen)     1516698
          Number of HB bonds (unbound hydrogen)   73035
          Number of XB bonds                      0

 E+G (total)                   0 d,  0 h,  0 min,  0.177 sec
 distance/D3 list               ...        0 min,  0.003 sec (  1.664%)
 non bonded repulsion           ...        0 min,  0.004 sec (  2.265%)
 dCN                            ...        0 min,  0.001 sec (  0.367%)
 EEQ energy and q               ...        0 min,  0.004 sec (  2.086%)
                                ...        0 min,  0.000 sec (  0.000%)
 EEQ gradient                   ...        0 min,  0.002 sec (  0.937%)
 bonds                          ...        0 min,  0.000 sec (  0.252%)
 bend and torsion               ...        0 min,  0.000 sec (  0.128%)
 bonded ATM                     ...        0 min,  0.000 sec (  0.025%)
 HB/XB (incl list setup)        ...        0 min,  0.160 sec ( 90.311%)

         :::::::::::::::::::::::::::::::::::::::::::::::::::::
         ::                     SUMMARY                     ::
         :::::::::::::::::::::::::::::::::::::::::::::::::::::
         :: total energy              -9.522300429923 Eh    ::
         :: gradient norm              0.083513313046 Eh/a0 ::
         ::.................................................::
         :: bond energy               -9.912614118262 Eh    ::
         :: angle energy               0.000109071765 Eh    ::
         :: torsion energy             0.000120628823 Eh    ::
         :: repulsion energy           0.540632558040 Eh    ::
         :: electrostat energy        -0.018671598408 Eh    ::
         :: dispersion energy         -0.102359487957 Eh    ::
         :: HB energy                 -0.015730852149 Eh    ::
         :: XB energy                  0.000000000000 Eh    ::
         :: bonded atm energy         -0.013786631774 Eh    ::
         :: external energy            0.000000000000 Eh    ::
         :: add. restraining           0.000000000000 Eh    ::
         :: total charge              -0.000000000000 e     ::
         :::::::::::::::::::::::::::::::::::::::::::::::::::::


........................................................................
.............................. CYCLE    1 ..............................
........................................................................
     iter. time                 ...        0 min,  0.149 sec
          total energy          -9.522300429922529 Eh
            energy change       -0.18+309 Eh
 
          gradient norm          0.083513313045566 Eh/a0
            max. gradient        0.014606819710910 Eh/a0
 
            step length          0.000000000000000 a0
            max. step            0.000000000000000 a0
 
       unit cell volume        467.519358401281920 A^3
 
       current lattice:  
       13.896230294964161        0.000000000000000        0.000000000000000
        0.000000000000000       17.738836349762860        0.000000000000000
        0.000000000000000        0.000000000000000       12.798942163747091

........................................................................
.............................. CYCLE    2 ..............................
........................................................................
     iter. time                 ...        0 min,  0.147 sec
          total energy          -9.528631670204955 Eh
            energy change       -0.63E-02 Eh
 
          gradient norm          0.069165682935155 Eh/a0
            max. gradient        0.011031703870642 Eh/a0
 
            step length          0.083513313045566 a0
            max. step            0.014606819710910 a0
 
       unit cell volume        467.519358401281920 A^3
 
       current lattice:  
       13.896230294964161        0.000000000000000        0.000000000000000
        0.000000000000000       17.738836349762860        0.000000000000000
        0.000000000000000        0.000000000000000       12.798942163747091

........................................................................
.............................. CYCLE    3 ..............................
........................................................................
     iter. time                 ...        0 min,  0.150 sec
          total energy          -9.543429160982946 Eh
            energy change       -0.15E-01 Eh
 
          gradient norm          0.018770975092624 Eh/a0
            max. gradient        0.003238505888966 Eh/a0
 
            step length          0.425965536640725 a0
            max. step            0.011031703870642 a0
 
       unit cell volume        467.519358401281920 A^3
 
       current lattice:  
       13.896230294964161        0.000000000000000        0.000000000000000
        0.000000000000000       17.738836349762860        0.000000000000000
        0.000000000000000        0.000000000000000       12.798942163747091

........................................................................
.............................. CYCLE    4 ..............................
........................................................................
     iter. time                 ...        0 min,  0.147 sec
          total energy          -9.543613006185865 Eh
            energy change       -0.18E-03 Eh
 
          gradient norm          0.004061822309601 Eh/a0
            max. gradient        0.000625077259863 Eh/a0
 
            step length          0.016367840241390 a0
            max. step            0.003238505888966 a0
 
       unit cell volume        467.519358401281920 A^3
 
       current lattice:  
       13.896230294964161        0.000000000000000        0.000000000000000
        0.000000000000000       17.738836349762860        0.000000000000000
        0.000000000000000        0.000000000000000       12.798942163747091

........................................................................
.............................. CYCLE    5 ..............................
........................................................................
     iter. time                 ...        0 min,  0.150 sec
          total energy          -9.543624498793514 Eh
            energy change       -0.11E-04 Eh
 
          gradient norm          0.001743537763647 Eh/a0
            max. gradient        0.000308467028894 Eh/a0
 
            step length          0.004908765114394 a0
            max. step            0.000625077259863 a0
 
       unit cell volume        467.519358401281920 A^3
 
       current lattice:  
       13.896230294964161        0.000000000000000        0.000000000000000
        0.000000000000000       17.738836349762860        0.000000000000000
        0.000000000000000        0.000000000000000       12.798942163747091

........................................................................
.............................. CYCLE    6 ..............................
........................................................................
     iter. time                 ...        0 min,  0.152 sec
          total energy          -9.543627805399890 Eh
            energy change       -0.33E-05 Eh
 
          gradient norm          0.001637690738112 Eh/a0
            max. gradient        0.000273474506227 Eh/a0
 
            step length          0.002742737145176 a0
            max. step            0.000308467028894 a0
 
       unit cell volume        467.519358401281920 A^3
 
       current lattice:  
       13.896230294964161        0.000000000000000        0.000000000000000
        0.000000000000000       17.738836349762860        0.000000000000000
        0.000000000000000        0.000000000000000       12.798942163747091

........................................................................
.............................. CYCLE    7 ..............................
........................................................................
     iter. time                 ...        0 min,  0.149 sec
          total energy          -9.543634730619138 Eh
            energy change       -0.69E-05 Eh
 
          gradient norm          0.001602473941372 Eh/a0
            max. gradient        0.000271437498180 Eh/a0
 
            step length          0.007992379917947 a0
            max. step            0.000273474506227 a0
 
       unit cell volume        467.519358401281920 A^3
 
       current lattice:  
       13.896230294964161        0.000000000000000        0.000000000000000
        0.000000000000000       17.738836349762860        0.000000000000000
        0.000000000000000        0.000000000000000       12.798942163747091

........................................................................
.............................. CYCLE    8 ..............................
........................................................................
     iter. time                 ...        0 min,  0.151 sec
          total energy          -9.543637736344527 Eh
            energy change       -0.30E-05 Eh
 
          gradient norm          0.001386528751513 Eh/a0
            max. gradient        0.000243264569096 Eh/a0
 
            step length          0.004830727072435 a0
            max. step            0.000271437498180 a0
 
       unit cell volume        467.519358401281920 A^3
 
       current lattice:  
       13.896230294964161        0.000000000000000        0.000000000000000
        0.000000000000000       17.738836349762860        0.000000000000000
        0.000000000000000        0.000000000000000       12.798942163747091

........................................................................
.............................. CYCLE    9 ..............................
........................................................................
     iter. time                 ...        0 min,  0.194 sec
          total energy          -9.543640961353102 Eh
            energy change       -0.32E-05 Eh
 
          gradient norm          0.001340742753117 Eh/a0
            max. gradient        0.000249299436794 Eh/a0
 
            step length          0.006098617425869 a0
            max. step            0.000243264569096 a0
 
       unit cell volume        467.519358401281920 A^3
 
       current lattice:  
       13.896230294964161        0.000000000000000        0.000000000000000
        0.000000000000000       17.738836349762860        0.000000000000000
        0.000000000000000        0.000000000000000       12.798942163747091

........................................................................
.............................. CYCLE   10 ..............................
........................................................................
     iter. time                 ...        0 min,  0.195 sec
          total energy          -9.543644555886546 Eh
            energy change       -0.36E-05 Eh
 
          gradient norm          0.001572323100664 Eh/a0
            max. gradient        0.000337793574710 Eh/a0
 
            step length          0.007217699929920 a0
            max. step            0.000249299436794 a0
 
       unit cell volume        467.519358401281920 A^3
 
       current lattice:  
       13.896230294964161        0.000000000000000        0.000000000000000
        0.000000000000000       17.738836349762860        0.000000000000000
        0.000000000000000        0.000000000000000       12.798942163747091

........................................................................
.............................. CYCLE   11 ..............................
........................................................................
     iter. time                 ...        0 min,  0.145 sec
          total energy          -9.543649323930586 Eh
            energy change       -0.48E-05 Eh
 
          gradient norm          0.001710206752391 Eh/a0
            max. gradient        0.000358629446974 Eh/a0
 
            step length          0.010610368504976 a0
            max. step            0.000337793574710 a0
 
       unit cell volume        467.519358401281920 A^3
 
       current lattice:  
       13.896230294964161        0.000000000000000        0.000000000000000
        0.000000000000000       17.738836349762860        0.000000000000000
        0.000000000000000        0.000000000000000       12.798942163747091

........................................................................
.............................. CYCLE   12 ..............................
........................................................................
     iter. time                 ...        0 min,  0.145 sec
          total energy          -9.543653096816207 Eh
            energy change       -0.38E-05 Eh
 
          gradient norm          0.001460462718285 Eh/a0
            max. gradient        0.000275430559393 Eh/a0
 
            step length          0.009754118631320 a0
            max. step            0.000358629446974 a0
 
       unit cell volume        467.519358401281920 A^3
 
       current lattice:  
       13.896230294964161        0.000000000000000        0.000000000000000
        0.000000000000000       17.738836349762860        0.000000000000000
        0.000000000000000        0.000000000000000       12.798942163747091

........................................................................
.............................. CYCLE   13 ..............................
........................................................................
     iter. time                 ...        0 min,  0.144 sec
          total energy          -9.543656112379887 Eh
            energy change       -0.30E-05 Eh
 
          gradient norm          0.001306585005883 Eh/a0
            max. gradient        0.000271357001310 Eh/a0
 
            step length          0.007432769891782 a0
            max. step            0.000275430559393 a0
 
       unit cell volume        467.519358401281920 A^3
 
       current lattice:  
       13.896230294964161        0.000000000000000        0.000000000000000
        0.000000000000000       17.738836349762860        0.000000000000000
        0.000000000000000        0.000000000000000       12.798942163747091

........................................................................
.............................. CYCLE   14 ..............................
........................................................................
     iter. time                 ...        0 min,  0.147 sec
          total energy          -9.543660070773438 Eh
            energy change       -0.40E-05 Eh
 
          gradient norm          0.001677703326108 Eh/a0
            max. gradient        0.000283868439229 Eh/a0
 
            step length          0.008360048654418 a0
            max. step            0.000271357001310 a0
 
       unit cell volume        467.519358401281920 A^3
 
       current lattice:  
       13.896230294964161        0.000000000000000        0.000000000000000
        0.000000000000000       17.738836349762860        0.000000000000000
        0.000000000000000        0.000000000000000       12.798942163747091

........................................................................
.............................. CYCLE   15 ..............................
........................................................................
     iter. time                 ...        0 min,  0.148 sec
          total energy          -9.543667689962820 Eh
            energy change       -0.76E-05 Eh
 
          gradient norm          0.002725982877072 Eh/a0
            max. gradient        0.000512941686669 Eh/a0
 
            step length          0.017956493736400 a0
            max. step            0.000283868439229 a0
 
       unit cell volume        467.519358401281920 A^3
 
       current lattice:  
       13.896230294964161        0.000000000000000        0.000000000000000
        0.000000000000000       17.738836349762860        0.000000000000000
        0.000000000000000        0.000000000000000       12.798942163747091

........................................................................
.............................. CYCLE   16 ..............................
........................................................................
     iter. time                 ...        0 min,  0.146 sec
          total energy          -9.543684139277376 Eh
            energy change       -0.16E-04 Eh
 
          gradient norm          0.004374350688469 Eh/a0
            max. gradient        0.000835067338192 Eh/a0
 
            step length          0.042512172895553 a0
            max. step            0.000512941686669 a0
 
       unit cell volume        467.519358401281920 A^3
 
       current lattice:  
       13.896230294964161        0.000000000000000        0.000000000000000
        0.000000000000000       17.738836349762860        0.000000000000000
        0.000000000000000        0.000000000000000       12.798942163747091

........................................................................
.............................. CYCLE   17 ..............................
........................................................................
     iter. time                 ...        0 min,  0.150 sec
          total energy          -9.543716165357612 Eh
            energy change       -0.32E-04 Eh
 
          gradient norm          0.006078451584183 Eh/a0
            max. gradient        0.001274897704578 Eh/a0
 
            step length          0.090962216859279 a0
            max. step            0.000835067338192 a0
 
       unit cell volume        467.519358401281920 A^3
 
       current lattice:  
       13.896230294964161        0.000000000000000        0.000000000000000
        0.000000000000000       17.738836349762860        0.000000000000000
        0.000000000000000        0.000000000000000       12.798942163747091

........................................................................
.............................. CYCLE   18 ..............................
........................................................................
     iter. time                 ...        0 min,  0.148 sec
          total energy          -9.543762433586330 Eh
            energy change       -0.46E-04 Eh
 
          gradient norm          0.006413694482760 Eh/a0
            max. gradient        0.001429130395116 Eh/a0
 
            step length          0.144147300272932 a0
            max. step            0.001274897704578 a0
 
       unit cell volume        467.519358401281920 A^3
 
       current lattice:  
       13.896230294964161        0.000000000000000        0.000000000000000
        0.000000000000000       17.738836349762860        0.000000000000000
        0.000000000000000        0.000000000000000       12.798942163747091

........................................................................
.............................. CYCLE   19 ..............................
........................................................................
     iter. time                 ...        0 min,  0.146 sec
          total energy          -9.543804490570549 Eh
            energy change       -0.42E-04 Eh
 
          gradient norm          0.004689614230970 Eh/a0
            max. gradient        0.001047817720027 Eh/a0
 
            step length          0.136863974949434 a0
            max. step            0.001429130395116 a0
 
       unit cell volume        467.519358401281920 A^3
 
       current lattice:  
       13.896230294964161        0.000000000000000        0.000000000000000
        0.000000000000000       17.738836349762860        0.000000000000000
        0.000000000000000        0.000000000000000       12.798942163747091

........................................................................
.............................. CYCLE   20 ..............................
........................................................................
     iter. time                 ...        0 min,  0.145 sec
          total energy          -9.543831849166130 Eh
            energy change       -0.27E-04 Eh
 
          gradient norm          0.003397874680804 Eh/a0
            max. gradient        0.000579821943957 Eh/a0
 
            step length          0.071217096994043 a0
            max. step            0.001047817720027 a0
 
       unit cell volume        467.519358401281920 A^3
 
       current lattice:  
       13.896230294964161        0.000000000000000        0.000000000000000
        0.000000000000000       17.738836349762860        0.000000000000000
        0.000000000000000        0.000000000000000       12.798942163747091

........................................................................
.............................. CYCLE   21 ..............................
........................................................................
     iter. time                 ...        0 min,  0.150 sec
          total energy          -9.543853153115545 Eh
            energy change       -0.21E-04 Eh
 
          gradient norm          0.004027372735991 Eh/a0
            max. gradient        0.000838356370147 Eh/a0
 
            step length          0.037258220917914 a0
            max. step            0.000579821943957 a0
 
       unit cell volume        467.519358401281920 A^3
 
       current lattice:  
       13.896230294964161        0.000000000000000        0.000000000000000
        0.000000000000000       17.738836349762860        0.000000000000000
        0.000000000000000        0.000000000000000       12.798942163747091

........................................................................
.............................. CYCLE   22 ..............................
........................................................................
     iter. time                 ...        0 min,  0.152 sec
          total energy          -9.543878845984050 Eh
            energy change       -0.26E-04 Eh
 
          gradient norm          0.003283568634634 Eh/a0
            max. gradient        0.000604915860273 Eh/a0
 
            step length          0.028830597371483 a0
            max. step            0.000838356370147 a0
 
       unit cell volume        467.519358401281920 A^3
 
       current lattice:  
       13.896230294964161        0.000000000000000        0.000000000000000
        0.000000000000000       17.738836349762860        0.000000000000000
        0.000000000000000        0.000000000000000       12.798942163747091

........................................................................
.............................. CYCLE   23 ..............................
........................................................................
     iter. time                 ...        0 min,  0.147 sec
          total energy          -9.543923541185064 Eh
            energy change       -0.45E-04 Eh
 
          gradient norm          0.004932133808656 Eh/a0
            max. gradient        0.001118582659629 Eh/a0
 
            step length          0.120083665816768 a0
            max. step            0.000604915860273 a0
 
       unit cell volume        467.519358401281920 A^3
 
       current lattice:  
       13.896230294964161        0.000000000000000        0.000000000000000
        0.000000000000000       17.738836349762860        0.000000000000000
        0.000000000000000        0.000000000000000       12.798942163747091

........................................................................
.............................. CYCLE   24 ..............................
........................................................................
     iter. time                 ...        0 min,  0.144 sec
          total energy          -9.543973294478700 Eh
            energy change       -0.50E-04 Eh
 
          gradient norm          0.002486901972537 Eh/a0
            max. gradient        0.000502871069196 Eh/a0
 
            step length          0.121730858063567 a0
            max. step            0.001118582659629 a0
 
       unit cell volume        467.519358401281920 A^3
 
       current lattice:  
       13.896230294964161        0.000000000000000        0.000000000000000
        0.000000000000000       17.738836349762860        0.000000000000000
        0.000000000000000        0.000000000000000       12.798942163747091

........................................................................
.............................. CYCLE   25 ..............................
........................................................................
     iter. time                 ...        0 min,  0.145 sec
          total energy          -9.543985581820689 Eh
            energy change       -0.12E-04 Eh
 
          gradient norm          0.001922743494175 Eh/a0
            max. gradient        0.000357843686815 Eh/a0
 
            step length          0.075467202491467 a0
            max. step            0.000502871069196 a0
 
       unit cell volume        467.519358401281920 A^3
 
       current lattice:  
       13.896230294964161        0.000000000000000        0.000000000000000
        0.000000000000000       17.738836349762860        0.000000000000000
        0.000000000000000        0.000000000000000       12.798942163747091

........................................................................
.............................. CYCLE   26 ..............................
........................................................................
     iter. time                 ...        0 min,  0.148 sec
          total energy          -9.543990711023858 Eh
            energy change       -0.51E-05 Eh
 
          gradient norm          0.001505805435558 Eh/a0
            max. gradient        0.000305541845311 Eh/a0
 
            step length          0.022171721038918 a0
            max. step            0.000357843686815 a0
 
       unit cell volume        467.519358401281920 A^3
 
       current lattice:  
       13.896230294964161        0.000000000000000        0.000000000000000
        0.000000000000000       17.738836349762860        0.000000000000000
        0.000000000000000        0.000000000000000       12.798942163747091

........................................................................
.............................. CYCLE   27 ..............................
........................................................................
     iter. time                 ...        0 min,  0.146 sec
          total energy          -9.543994388550759 Eh
            energy change       -0.37E-05 Eh
 
          gradient norm          0.001440160926670 Eh/a0
            max. gradient        0.000292610498511 Eh/a0
 
            step length          0.019461665462167 a0
            max. step            0.000305541845311 a0
 
       unit cell volume        467.519358401281920 A^3
 
       current lattice:  
       13.896230294964161        0.000000000000000        0.000000000000000
        0.000000000000000       17.738836349762860        0.000000000000000
        0.000000000000000        0.000000000000000       12.798942163747091

........................................................................
.............................. CYCLE   28 ..............................
........................................................................
     iter. time                 ...        0 min,  0.143 sec
          total energy          -9.543999822349548 Eh
            energy change       -0.54E-05 Eh
 
          gradient norm          0.001277355149196 Eh/a0
            max. gradient        0.000292228091895 Eh/a0
 
            step length          0.026700542482948 a0
            max. step            0.000292610498511 a0
 
       unit cell volume        467.519358401281920 A^3
 
       current lattice:  
       13.896230294964161        0.000000000000000        0.000000000000000
        0.000000000000000       17.738836349762860        0.000000000000000
        0.000000000000000        0.000000000000000       12.798942163747091

........................................................................
.............................. CYCLE   29 ..............................
........................................................................
     iter. time                 ...        0 min,  0.146 sec
          total energy          -9.544004151912155 Eh
            energy change       -0.43E-05 Eh
 
          gradient norm          0.001307899627655 Eh/a0
            max. gradient        0.000305974048260 Eh/a0
 
            step length          0.015713436402618 a0
            max. step            0.000292228091895 a0
 
       unit cell volume        467.519358401281920 A^3
 
       current lattice:  
       13.896230294964161        0.000000000000000        0.000000000000000
        0.000000000000000       17.738836349762860        0.000000000000000
        0.000000000000000        0.000000000000000       12.798942163747091

........................................................................
.............................. CYCLE   30 ..............................
........................................................................
     iter. time                 ...        0 min,  0.144 sec
          total energy          -9.544008338291425 Eh
            energy change       -0.42E-05 Eh
 
          gradient norm          0.001373729620132 Eh/a0
            max. gradient        0.000267699010999 Eh/a0
 
            step length          0.019177666311262 a0
            max. step            0.000305974048260 a0
 
       unit cell volume        467.519358401281920 A^3
 
       current lattice:  
       13.896230294964161        0.000000000000000        0.000000000000000
        0.000000000000000       17.738836349762860        0.000000000000000
        0.000000000000000        0.000000000000000       12.798942163747091

........................................................................
.............................. CYCLE   31 ..............................
........................................................................
     iter. time                 ...        0 min,  0.147 sec
          total energy          -9.544013591827680 Eh
            energy change       -0.53E-05 Eh
 
          gradient norm          0.001437320793744 Eh/a0
            max. gradient        0.000267777853299 Eh/a0
 
            step length          0.018937287115368 a0
            max. step            0.000267699010999 a0
 
       unit cell volume        467.519358401281920 A^3
 
       current lattice:  
       13.896230294964161        0.000000000000000        0.000000000000000
        0.000000000000000       17.738836349762860        0.000000000000000
        0.000000000000000        0.000000000000000       12.798942163747091

........................................................................
.............................. CYCLE   32 ..............................
........................................................................
     iter. time                 ...        0 min,  0.156 sec
          total energy          -9.544021004758237 Eh
            energy change       -0.74E-05 Eh
 
          gradient norm          0.001483370098710 Eh/a0
            max. gradient        0.000327047092095 Eh/a0
 
            step length          0.028448742181441 a0
            max. step            0.000267777853299 a0
 
       unit cell volume        467.519358401281920 A^3
 
       current lattice:  
       13.896230294964161        0.000000000000000        0.000000000000000
        0.000000000000000       17.738836349762860        0.000000000000000
        0.000000000000000        0.000000000000000       12.798942163747091

........................................................................
.............................. CYCLE   33 ..............................
........................................................................
     iter. time                 ...        0 min,  0.153 sec
          total energy          -9.544029246198946 Eh
            energy change       -0.82E-05 Eh
 
          gradient norm          0.001321770555002 Eh/a0
            max. gradient        0.000313570740644 Eh/a0
 
            step length          0.038507584644853 a0
            max. step            0.000327047092095 a0
 
       unit cell volume        467.519358401281920 A^3
 
       current lattice:  
       13.896230294964161        0.000000000000000        0.000000000000000
        0.000000000000000       17.738836349762860        0.000000000000000
        0.000000000000000        0.000000000000000       12.798942163747091

........................................................................
.............................. CYCLE   34 ..............................
........................................................................
     iter. time                 ...        0 min,  0.147 sec
          total energy          -9.544034885417767 Eh
            energy change       -0.56E-05 Eh
 
          gradient norm          0.001144745601808 Eh/a0
            max. gradient        0.000226108262869 Eh/a0
 
            step length          0.017838933184106 a0
            max. step            0.000313570740644 a0
 
       unit cell volume        467.519358401281920 A^3
 
       current lattice:  
       13.896230294964161        0.000000000000000        0.000000000000000
        0.000000000000000       17.738836349762860        0.000000000000000
        0.000000000000000        0.000000000000000       12.798942163747091

........................................................................
.............................. CYCLE   35 ..............................
........................................................................
     iter. time                 ...        0 min,  0.146 sec
          total energy          -9.544037466722427 Eh
            energy change       -0.26E-05 Eh
 
          gradient norm          0.000809944805812 Eh/a0
            max. gradient        0.000185054270809 Eh/a0
 
            step length          0.022472448294661 a0
            max. step            0.000226108262869 a0
 
       unit cell volume        467.519358401281920 A^3
 
       current lattice:  
       13.896230294964161        0.000000000000000        0.000000000000000
        0.000000000000000       17.738836349762860        0.000000000000000
        0.000000000000000        0.000000000000000       12.798942163747091

........................................................................
.............................. CYCLE   36 ..............................
........................................................................
     iter. time                 ...        0 min,  0.146 sec
          total energy          -9.544038724794525 Eh
            energy change       -0.13E-05 Eh
 
          gradient norm          0.000783834437717 Eh/a0
            max. gradient        0.000156383232417 Eh/a0
 
            step length          0.016703028821493 a0
            max. step            0.000185054270809 a0
 
       unit cell volume        467.519358401281920 A^3
 
       current lattice:  
       13.896230294964161        0.000000000000000        0.000000000000000
        0.000000000000000       17.738836349762860        0.000000000000000
        0.000000000000000        0.000000000000000       12.798942163747091

........................................................................
.............................. CYCLE   37 ..............................
........................................................................
     iter. time                 ...        0 min,  0.148 sec
          total energy          -9.544039783527916 Eh
            energy change       -0.11E-05 Eh
 
          gradient norm          0.000519734289457 Eh/a0
            max. gradient        0.000111925865384 Eh/a0
 
            step length          0.017644075663175 a0
            max. step            0.000156383232417 a0
 
       unit cell volume        467.519358401281920 A^3
 
       current lattice:  
       13.896230294964161        0.000000000000000        0.000000000000000
        0.000000000000000       17.738836349762860        0.000000000000000
        0.000000000000000        0.000000000000000       12.798942163747091

........................................................................
.............................. CYCLE   38 ..............................
........................................................................
     iter. time                 ...        0 min,  0.146 sec
          total energy          -9.544040493390112 Eh
            energy change       -0.71E-06 Eh
 
          gradient norm          0.000499440117909 Eh/a0
            max. gradient        0.000084430399901 Eh/a0
 
            step length          0.020586540995178 a0
            max. step            0.000111925865384 a0
 
       unit cell volume        467.519358401281920 A^3
 
       current lattice:  
       13.896230294964161        0.000000000000000        0.000000000000000
        0.000000000000000       17.738836349762860        0.000000000000000
        0.000000000000000        0.000000000000000       12.798942163747091

........................................................................
.............................. CYCLE   39 ..............................
........................................................................
     iter. time                 ...        0 min,  0.167 sec
          total energy          -9.544040960752554 Eh
            energy change       -0.47E-06 Eh
 
          gradient norm          0.000427931701287 Eh/a0
            max. gradient        0.000093445940659 Eh/a0
 
            step length          0.010373687259566 a0
            max. step            0.000084430399901 a0
 
       unit cell volume        467.519358401281920 A^3
 
       current lattice:  
       13.896230294964161        0.000000000000000        0.000000000000000
        0.000000000000000       17.738836349762860        0.000000000000000
        0.000000000000000        0.000000000000000       12.798942163747091
 
Geometry optimization converged after    39 steps.
================
 final structure:
================
$coord
        7.09196088834096       13.95012897962503        9.65272994525638      C
        7.09127140407096        8.81936150788384        3.27032888322884      C
        8.57854454685880        5.10016601008884       12.73400969435969      C
        9.75922844659442        7.42600263909834       12.70384201475795      C
        5.91273885071726        6.49277324362120        3.30225587794829      C
        9.01400278618420        9.28742535158637        1.57195941030714      C
        6.65821016343418        4.63108494048611        1.63609533340077      C
        2.05593069125612       13.50992502294461        1.63858552576087      C
       13.59757533606534        0.42806819087029        1.57637958398673      C
        2.80227355147684       15.37082845103851        3.30529379520750      C
       12.85133337771037       16.30604406401588       12.70816834780193      C
        1.65793967211194        5.08971834760876        9.64738507469963      C
        0.16471319979221        8.80839842514736        6.31430226602207      C
        2.83461384943903        7.41740393426808        9.67907580138506      C
       12.88302689706895        6.48130848037917        6.28390251244645      C
        2.08646314795473        9.27863616612810        8.01334098443638      C
        0.13482782133961       13.97975976816332       12.73767895006510      C
        1.62386863786316       17.69754594086343        3.27471720236247      C
        9.01397369818635       13.47908428665256        7.95419656415174      C
        5.91489897043102       16.27773071375618        9.68271987511032      C
        9.76261141223642       15.33960498250725        6.28804449807237      C
        8.58507366542227       17.66680842637127        6.31732881657515      C
        6.66288835301795        0.39898232308489        8.01552458147338      C
       13.63155731609485        4.61995896302861        7.94927670323708      C
       11.26827387221707        7.78118034456826       11.38398741526267      H
        5.73442860046049        2.21133516549778        8.02540868688723      H
        9.13490358311700        3.66021417773507       11.40653545038571      H
        6.52942908310461       10.26245328081569        4.59174896814432      H
        4.31016516533793       15.01415480347790        4.62555796589412      H
       12.66890993363114        2.24040535847875        1.56491737473191      H
        2.98229410252683       11.69653731409021        1.65299547725679      H
       11.34139364826544       16.66172425815839       11.38957609323538      H
        4.40474215924358        6.13702909121227        4.62253934994527      H
        2.22266893152856        3.64658075710635       10.96768359348928      H
        5.73096664844759        2.81814127100081        1.65112030710171      H
        9.94306604223766       11.09954938284697        1.55989947974590      H
       13.47233859190071       12.53943669972638       11.41166897190443      H
       11.37499902150230        6.12404347666019        4.96371648772891      H
        4.34469184497734        7.77330280200942       10.99722633462046      H
       12.70762940418516        2.80524087472623        7.93322809225245      H
        3.01525431066507       11.09081568972902        8.02417215944910      H
        6.52912585934648       12.50877210456560       10.97590248043138      H
        9.14493084226022        1.36781502177771        4.99151278641320      H
       11.27130408277155       14.98189839404774        4.96892928484873      H
        4.40545827284953       16.63471802561689       11.00149225713423      H
        9.93797623840462       11.66440292834335        7.93916535924085      H
       13.50275092152932       10.24808693384930        4.98749792237970      H
        2.18454107072691        1.40029176517011        4.59831890465811      H
$periodic 3
$lattice bohr
   13.89623029496416    0.00000000000000    0.00000000000000
    0.00000000000000   17.73883634976286    0.00000000000000
    0.00000000000000    0.00000000000000   12.79894216374709
$end
 
 Bond Distances (Angstroems)
 ---------------------------
C1-C19=1.3800        C1-C20=1.3803        C1-H42=1.0774        C2-C5=1.3802         C2-C6=1.3800         C2-H28=1.0773        
C3-C4=1.3804         C3-H27=1.0774        C4-C3=1.3804         C4-H25=1.0774        C5-C2=1.3802         C5-C7=1.3797         
C5-H33=1.0772        C6-C2=1.3800         C6-H36=1.0776        C7-C5=1.3797         C7-H35=1.0776        C8-C10=1.3797        
C8-H31=1.0776        C9-H30=1.0776        C10-C8=1.3797        C10-C18=1.3802       C10-H29=1.0772       C11-H32=1.0774       
C12-C14=1.3803       C12-H34=1.0773       C13-C16=1.3800       C14-C12=1.3803       C14-C16=1.3798       C14-H39=1.0773       
C15-C24=1.3798       C15-H38=1.0773       C16-C13=1.3800       C16-C14=1.3798       C16-H41=1.0776       C18-C10=1.3802       
C19-C1=1.3800        C19-C21=1.3797       C19-H46=1.0776       C20-C1=1.3803        C20-H45=1.0774       C21-C19=1.3797       
C21-C22=1.3803       C21-H44=1.0773       C22-C21=1.3803       C23-H26=1.0776       C24-C15=1.3798       C24-H40=1.0776       
H25-C4=1.0774        H26-C23=1.0776       H27-C3=1.0774        H28-C2=1.0773        H29-C10=1.0772       H30-C9=1.0776        
H31-C8=1.0776        H32-C11=1.0774       H33-C5=1.0772        H34-C12=1.0773       H35-C7=1.0776        H36-C6=1.0776        
H38-C15=1.0773       H39-C14=1.0773       H40-C24=1.0776       H41-C16=1.0776       H42-C1=1.0774        H44-C21=1.0773       
H45-C20=1.0774       H46-C19=1.0776       
 C  H  Rav=1.0774 sigma=0.0002  Rmin=1.0772  Rmax=1.0776    20
 C  C  Rav=1.3800 sigma=0.0002  Rmin=1.3797  Rmax=1.3804    14
 
 selected bond angles (degree)
 --------------------
C20-C1-C19=120.08              H42-C1-C19=119.94              H42-C1-C20=119.97              C6-C2-C5=120.08                
H28-C2-C5=119.98               H28-C2-C6=119.93               H27-C3-C4=119.96               H25-C4-C3=119.90               
C7-C5-C2=119.99                H33-C5-C2=119.90               H33-C5-C7=120.10               H36-C6-C2=120.00               
H35-C7-C5=120.05               H31-C8-C10=120.06              C18-C10-C8=119.99              H29-C10-C8=120.10              
H29-C10-C18=119.90             
 
 selected dihedral angles (degree)
 ---------------------------------
H25-C4-C3-H27=358.43          C7-C5-C2-C6=  0.05            C7-C5-C2-H28=181.00           H33-C5-C2-C6=180.38           
H33-C5-C2-H28=  1.32          H36-C6-C2-C5=180.52           H36-C6-C2-H28=359.58          H35-C7-C5-C2=180.41           
H35-C7-C5-H33=  0.08          C18-C10-C8-H31=179.62         H29-C10-C8-H31=359.92         
 
 CMA Distance (Angstroems)
 ---------------------------
R(CMA):  3.8064
           -------------------------------------------------
          |                Final Singlepoint                |
           -------------------------------------------------
         :::::::::::::::::::::::::::::::::::::::::::::::::::::
         ::                     SUMMARY                     ::
         :::::::::::::::::::::::::::::::::::::::::::::::::::::
         :: total energy              -9.544040960753 Eh    ::
         :: gradient norm              0.000427931701 Eh/a0 ::
         ::.................................................::
         :: bond energy              -10.044709146909 Eh    ::
         :: angle energy               0.000005344511 Eh    ::
         :: torsion energy             0.000081059518 Eh    ::
         :: repulsion energy           0.654503110596 Eh    ::
         :: electrostat energy        -0.018770013654 Eh    ::
         :: dispersion energy         -0.101973470349 Eh    ::
         :: HB energy                 -0.016940027340 Eh    ::
         :: XB energy                  0.000000000000 Eh    ::
         :: bonded atm energy         -0.016237817127 Eh    ::
         :: external energy            0.000000000000 Eh    ::
         :: add. restraining           0.000000000000 Eh    ::
         :: total charge              -0.000000000000 e     ::
         :::::::::::::::::::::::::::::::::::::::::::::::::::::

           -------------------------------------------------
          |                Property Printout                |
           -------------------------------------------------
 Periodic properties
           -------------------------------------------------
          |                Geometry Summary                 |
           -------------------------------------------------

 * 48 atoms in unit cell

     #   Z                                     position/Å        charge
     1   6 C        3.7529044     7.3820910     5.1080052     4.0000000
     2   6 C        3.7525396     4.6670056     1.7305837     4.0000000
     3   6 C        4.5395707     2.6988919     6.7385484     4.0000000
     4   6 C        5.1643618     3.9296717     6.7225843     4.0000000
     5   6 C        3.1288869     3.4358280     1.7474787     4.0000000
     6   6 C        4.7700053     4.9146943     0.8318452     4.0000000
     7   6 C        3.5233734     2.4506648     0.8657844     4.0000000
     8   6 C        1.0879518     7.1491451     0.8671022     4.0000000
     9   6 C        7.1955277     0.2265240     0.8341842     4.0000000
    10   6 C        1.4828994     8.1338929     1.7490863     4.0000000
    11   6 C        6.8006334     8.6287877     6.7248737     4.0000000
    12   6 C        0.8773440     2.6933632     5.1051768     4.0000000
    13   6 C        0.0871625     4.6612041     3.3413852     4.0000000
    14   6 C        1.5000132     3.9251215     5.1219468     4.0000000
    15   6 C        6.8174049     3.4297611     3.3252983     4.0000000
    16   6 C        1.1041089     4.9100433     4.2404778     4.0000000
    17   6 C        0.0713478     7.3977710     6.7404900     4.0000000
    18   6 C        0.8593144     9.3651389     1.7329059     4.0000000
    19   6 C        4.7699899     7.1328249     4.2091799     4.0000000
    20   6 C        3.1300300     8.6138049     5.1238752     4.0000000
    21   6 C        5.1661520     8.1173701     3.3274902     4.0000000
    22   6 C        4.5430258     9.3488733     3.3429868     4.0000000
    23   6 C        3.5258490     0.2111324     4.2416333     4.0000000
    24   6 C        7.2135102     2.4447772     4.2065765     4.0000000
    25   1 H        5.9629143     4.1176237     6.0241473     1.0000000
    26   1 H        3.0345292     1.1701883     4.2468638     1.0000000
    27   1 H        4.8339832     1.9369021     6.0360792     1.0000000
    28   1 H        3.4552254     5.4306569     2.4298491     1.0000000
    29   1 H        2.2808414     7.9451493     2.4477401     1.0000000
    30   1 H        6.7040990     1.1855716     0.8281187     1.0000000
    31   1 H        1.5781622     6.1895416     0.8747276     1.0000000
    32   1 H        6.0016076     8.8170056     6.0271047     1.0000000
    33   1 H        2.3308894     3.2475762     2.4461427     1.0000000
    34   1 H        1.1761859     1.9296876     5.8038488     1.0000000
    35   1 H        3.0326972     1.4912963     0.8737353     1.0000000
    36   1 H        5.2616444     5.8736291     0.8254633     1.0000000
    37   1 H        7.1292552     6.6355848     6.0387957     1.0000000
    38   1 H        6.0193908     3.2407045     2.6266859     1.0000000
    39   1 H        2.2991121     4.1134551     5.8194821     1.0000000
    40   1 H        6.7245885     1.4844697     4.1980839     1.0000000
    41   1 H        1.5956040     5.8690075     4.2462094     1.0000000
    42   1 H        3.4550649     6.6193577     5.8081980     1.0000000
    43   1 H        4.8392894     0.7238166     2.6413951     1.0000000
    44   1 H        5.9645178     7.9280799     2.6294444     1.0000000
    45   1 H        2.3312683     8.8027145     5.8217395     1.0000000
    46   1 H        5.2589510     6.1725368     4.2012258     1.0000000
    47   1 H        7.1453487     5.4230546     2.6392705     1.0000000
    48   1 H        1.1560095     0.7410026     2.4333258     1.0000000

 * 3D periodic system

 * cell parameter

      |a|/Å         |b|/Å         |c|/Å        α/°      β/°      γ/°
    7.3535691     9.3869888     6.7729091    90.000   90.000   90.000

 * direct lattice/Å

            a     7.3535691     0.0000000     0.0000000
            b     0.0000000     9.3869888     0.0000000
            c     0.0000000     0.0000000     6.7729091

 * reciprocal lattice/Å⁻¹

           a*     0.8544402     0.0000000     0.0000000
           b*     0.0000000     0.6693505     0.0000000
           c*     0.0000000     0.0000000     0.9276937

 * geometry in fractional coordinates

     #   Z                         fractional coordinates
     1   6 C        0.5116400     0.7881200     0.7654500
     2   6 C        0.5119200     0.4942800     0.2628400
     3   6 C        0.6192200     0.2896600     0.9837300
     4   6 C        0.7017100     0.4247000     0.9843700
     5   6 C        0.4294000     0.3592500     0.2621700
     6   6 C        0.6478500     0.5270100     0.1241400
     7   6 C        0.4832700     0.2569400     0.1224100
     8   6 C        0.1450700     0.7586900     0.1222400
     9   6 C        0.9806700     0.0288300     0.1242300
    10   6 C        0.1989600     0.8608900     0.2621500
    11   6 C        0.9268000     0.9266400     0.9842800
    12   6 C        0.1166300     0.2898300     0.7655300
    13   6 C        0.0091500     0.4942500     0.4862200
    14   6 C        0.1991100     0.4248800     0.7646700
    15   6 C        0.9266700     0.3592000     0.4870900
    16   6 C        0.1451400     0.5270800     0.6248000
    17   6 C        0.0091900     0.7915600     0.9835300
    18   6 C        0.1165400     0.9959600     0.2629500
    19   6 C        0.6476000     0.7552300     0.6268600
    20   6 C        0.4292700     0.9232100     0.7646200
    21   6 C        0.7016000     0.8574100     0.4869700
    22   6 C        0.6192200     0.9925000     0.4861200
    23   6 C        0.4832500     0.0253900     0.6247100
    24   6 C        0.9806300     0.2570000     0.6269600
    25   1 H        0.8084000     0.4493700     0.8756300
    26   1 H        0.4172400     0.1306900     0.6231100
    27   1 H        0.6579800     0.2098500     0.8725800
    28   1 H        0.4731900     0.5740800     0.3740300
    29   1 H        0.3056200     0.8361400     0.3709000
    30   1 H        0.9146300     0.1341200     0.1257700
    31   1 H        0.2111300     0.6534100     0.1206800
    32   1 H        0.8201300     0.9513800     0.8755500
    33   1 H        0.3227300     0.3345800     0.3709300
    34   1 H        0.1554200     0.2101200     0.8768100
    35   1 H        0.4171400     0.1516900     0.1209500
    36   1 H        0.7139700     0.6322600     0.1255800
    37   1 H        0.9704200     0.7118300     0.8722500
    38   1 H        0.8199700     0.3344600     0.3784000
    39   1 H        0.3058400     0.4496100     0.8733400
    40   1 H        0.9145100     0.1517500     0.6285600
    41   1 H        0.2112500     0.6323400     0.6231700
    42   1 H        0.4727800     0.7084100     0.8767200
    43   1 H        0.6581000     0.0722100     0.3748700
    44   1 H        0.8082900     0.8326400     0.3782900
    45   1 H        0.3225000     0.9479600     0.8732400
    46   1 H        0.7136600     0.6499500     0.6284700
    47   1 H        0.9703300     0.5739700     0.3749600
    48   1 H        0.1552900     0.0756800     0.3742500

 * volume of direct unit cell/Å³ =   467.5194962

 * mass density of direct unit cell/g·cm⁻³ =     1.1097559


optimized geometry written to: xtbopt.coord


           -------------------------------------------------
          | TOTAL ENERGY               -9.544040960753 Eh   |
          | GRADIENT NORM               0.000427931701 Eh/α |
           -------------------------------------------------

------------------------------------------------------------------------
 * finished run on 2024/11/26 at 21:09:37.711     
------------------------------------------------------------------------
 total:
 * wall-time:     0 d,  0 h,  0 min,  6.352 sec
 *  cpu-time:     0 d,  0 h,  2 min,  6.318 sec
 * ratio c/w:    19.885 speedup
 SCF:
 * wall-time:     0 d,  0 h,  0 min,  0.185 sec
 *  cpu-time:     0 d,  0 h,  0 min,  3.701 sec
 * ratio c/w:    19.981 speedup
 ANC optimizer:
 * wall-time:     0 d,  0 h,  0 min,  6.052 sec
 *  cpu-time:     0 d,  0 h,  2 min,  0.836 sec
 * ratio c/w:    19.967 speedup

