      -----------------------------------------------------------      
     |                   =====================                   |     
     |                           x T B                           |     
     |                   =====================                   |     
     |                         S. Grimme                         |     
     |          Mulliken Center for Theoretical Chemistry        |     
     |                    University of Bonn                     |     
      -----------------------------------------------------------      

   * xtb version 6.7.1 (edcfbbe) compiled by 'albert@albert-system' on 2024-07-22

   xtb is free software: you can redistribute it and/or modify it under
   the terms of the GNU Lesser General Public License as published by
   the Free Software Foundation, either version 3 of the License, or
   (at your option) any later version.
   
   xtb is distributed in the hope that it will be useful,
   but WITHOUT ANY WARRANTY; without even the implied warranty of
   MERCHANTABILITY or FITNESS FOR A PARTICULAR PURPOSE.  See the
   GNU Lesser General Public License for more details.
   
   Cite this work as:
   * C. Bannwarth, E. Caldeweyher, S. Ehlert, A. Hansen, P. Pracht,
     J. Seibert, S. Spicher, S. Grimme, WIREs Comput. Mol. Sci., 2020, 11,
     e01493. DOI: 10.1002/wcms.1493
   
   for GFN2-xTB:
   * C. Bannwarth, S. Ehlert and S. Grimme., J. Chem. Theory Comput., 2019,
     15, 1652-1671. DOI: 10.1021/acs.jctc.8b01176
   for GFN1-xTB:
   * S. Grimme, C. Bannwarth, P. Shushkov, J. Chem. Theory Comput., 2017,
     13, 1989-2009. DOI: 10.1021/acs.jctc.7b00118
   for GFN0-xTB:
   * P. Pracht, E. Caldeweyher, S. Ehlert, S. Grimme, ChemRxiv, 2019, preprint.
     DOI: 10.26434/chemrxiv.8326202.v1
   for GFN-FF:
   * S. Spicher and S. Grimme, Angew. Chem. Int. Ed., 2020, 59, 15665-15673.
     DOI: 10.1002/anie.202004239
   
   for ALPB and GBSA implicit solvation:
   * S. Ehlert, M. Stahn, S. Spicher, S. Grimme, J. Chem. Theory Comput.,
     2021, 17, 4250-4261. DOI: 10.1021/acs.jctc.1c00471
   
   for ddCOSMO and CPCM-X implicit solvation:
   * M. Stahn, S. Ehlert, S. Grimme, J. Phys. Chem. A,
     2023, XX, XXXX-XXXX. DOI: 10.1021/acs.jpca.3c04382
   
   for DFT-D4:
   * E. Caldeweyher, C. Bannwarth and S. Grimme, J. Chem. Phys., 2017,
     147, 034112. DOI: 10.1063/1.4993215
   * E. Caldeweyher, S. Ehlert, A. Hansen, H. Neugebauer, S. Spicher,
     C. Bannwarth and S. Grimme, J. Chem. Phys., 2019, 150, 154122.
     DOI: 10.1063/1.5090222
   * E. Caldeweyher, J.-M. Mewes, S. Ehlert and S. Grimme, Phys. Chem. Chem. Phys.
     2020, 22, 8499-8512. DOI: 10.1039/D0CP00502A
   
   for sTDA-xTB:
   * S. Grimme and C. Bannwarth, J. Chem. Phys., 2016, 145, 054103.
     DOI: 10.1063/1.4959605
   
   in the mass-spec context:
   * V. Asgeirsson, C. Bauer and S. Grimme, Chem. Sci., 2017, 8, 4879.
     DOI: 10.1039/c7sc00601b
   * J. Koopman and S. Grimme, ACS Omega 2019, 4, 12, 15120-15133.
     DOI: 10.1021/acsomega.9b02011
   
   for metadynamics refer to:
   * S. Grimme, J. Chem. Theory Comput., 2019, 155, 2847-2862
     DOI: 10.1021/acs.jctc.9b00143
   
   for SPH calculations refer to:
   * S. Spicher and S. Grimme, J. Chem. Theory Comput., 2021, 17, 1701-1714
     DOI: 10.1021/acs.jctc.0c01306
   
   for ONIOM refer to:
   * C. Plett, A. Katbashev, S. Ehlert, S. Grimme, M. Bursch,
     Phys. Chem. Chem. Phys., 2023, 25, 17860-17868. DOI: 10.1039/D3CP02178E
   
   for DIPRO refer to:
   * J. Kohn, N. Gildemeister, S. Grimme, D. Fazzi, A. Hansen,
     J. Chem. Phys., 2023, just accepted.
   
   for PTB refer to:
   * S. Grimme, M. Mueller, A. Hansen, J. Chem. Phys., 2023, 158, 124111.
     DOI: 10.1063/5.0137838
   
   with help from (in alphabetical order)
   P. Atkinson, C. Bannwarth, F. Bohle, G. Brandenburg, E. Caldeweyher
   M. Checinski, S. Dohm, S. Ehlert, S. Ehrlich, I. Gerasimov, C. Hölzer
   A. Katbashev, J. Kohn, J. Koopman, C. Lavigne, S. Lehtola, F. März, M. Müller,
   F. Musil, H. Neugebauer, J. Pisarek, C. Plett, P. Pracht, F. Pultar,
   J. Seibert, P. Shushkov, S. Spicher, M. Stahn, M. Steiner, T. Strunk,
   J. Stückrath, T. Rose, and J. Unsleber
   
 * started run on 2024/11/26 at 21:02:20.423     
   ID    Z sym.   atoms
    1    6 C      1-24
    2    1 H      25-48

           -------------------------------------------------
          |                Calculation Setup                |
           -------------------------------------------------

          program call               : xtb benzene.coord --opt --gfnff
          coordinate file            : benzene.coord
          omp threads                :                    20


molecular fragmentation (1/2 indicates fragments):
122222222222222222111122222222222222222221211122
# atoms in fragment 1/2:     9    39
 fragment masses (1/2) :       64.09      248.36
CMA distance (Bohr)    :   7.172
constraining FC (au)   :  0.0500
          GFN-FF topology read from file successfully!
           ------------------------------------------------- 
          |                   G F N - F F                   |
          |          A general generic force-field          |
          |                  Version 1.0.3                  | 
           ------------------------------------------------- 
          Number of HB bonds (bound hydrogen)     1516698
          Number of HB bonds (unbound hydrogen)   73035
          Number of XB bonds                      0

 E+G (total)                   0 d,  0 h,  0 min,  0.189 sec
 distance/D3 list               ...        0 min,  0.001 sec (  0.776%)
 non bonded repulsion           ...        0 min,  0.000 sec (  0.051%)
 dCN                            ...        0 min,  0.003 sec (  1.364%)
 EEQ energy and q               ...        0 min,  0.012 sec (  6.559%)
                                ...        0 min,  0.000 sec (  0.000%)
 EEQ gradient                   ...        0 min,  0.001 sec (  0.722%)
 bonds                          ...        0 min,  0.001 sec (  0.402%)
 bend and torsion               ...        0 min,  0.001 sec (  0.527%)
 bonded ATM                     ...        0 min,  0.000 sec (  0.023%)
 HB/XB (incl list setup)        ...        0 min,  0.169 sec ( 89.178%)

         :::::::::::::::::::::::::::::::::::::::::::::::::::::
         ::                     SUMMARY                     ::
         :::::::::::::::::::::::::::::::::::::::::::::::::::::
         :: total energy              -9.522300429923 Eh    ::
         :: gradient norm              0.083513313046 Eh/a0 ::
         ::.................................................::
         :: bond energy               -9.912614118262 Eh    ::
         :: angle energy               0.000109071765 Eh    ::
         :: torsion energy             0.000120628823 Eh    ::
         :: repulsion energy           0.540632558040 Eh    ::
         :: electrostat energy        -0.018671598408 Eh    ::
         :: dispersion energy         -0.102359487957 Eh    ::
         :: HB energy                 -0.015730852149 Eh    ::
         :: XB energy                  0.000000000000 Eh    ::
         :: bonded atm energy         -0.013786631774 Eh    ::
         :: external energy            0.000000000000 Eh    ::
         :: add. restraining           0.000000000000 Eh    ::
         :: total charge              -0.000000000000 e     ::
         :::::::::::::::::::::::::::::::::::::::::::::::::::::


........................................................................
.............................. CYCLE    1 ..............................
........................................................................
     iter. time                 ...        0 min,  0.183 sec
          total energy          -9.522300429922529 Eh
            energy change       -0.18+309 Eh
 
          gradient norm          0.147658888181522 Eh/a0
            max. gradient        0.064821338076433 Eh/a0
 
            step length          0.000000000000000 a0
            max. step            0.000000000000000 a0
 
       unit cell volume        467.519358401281920 A^3
 
       current lattice:  
       13.896230294964161        0.000000000000000        0.000000000000000
        0.000000000000000       17.738836349762860        0.000000000000000
        0.000000000000000        0.000000000000000       12.798942163747091

........................................................................
.............................. CYCLE    2 ..............................
........................................................................
     iter. time                 ...        0 min,  0.175 sec
          total energy          -9.531668447851851 Eh
            energy change       -0.94E-02 Eh
 
          gradient norm          0.131060128058472 Eh/a0
            max. gradient        0.041225168542481 Eh/a0
 
            step length          0.147658888181522 a0
            max. step            0.064821338076433 a0
 
       unit cell volume        461.463712966757498 A^3
 
       current lattice:  
       13.835271187037431       -0.000030509463936       -0.049420565539647
        0.010219292648245       17.674015011686429        0.000003299807388
       -0.000054301042500       -0.017930696976048       12.735361387807666

........................................................................
.............................. CYCLE    3 ..............................
........................................................................
     iter. time                 ...        0 min,  0.153 sec
          total energy          -9.540087390327340 Eh
            energy change       -0.84E-02 Eh
 
          gradient norm          0.053175565682562 Eh/a0
            max. gradient        0.013025629505333 Eh/a0
 
            step length          0.126143944365972 a0
            max. step            0.041225168542481 a0
 
       unit cell volume        460.062704223122125 A^3
 
       current lattice:  
       13.827827714182174       -0.009511516745262       -0.041667844456369
        0.006370740518971       17.667841007435541       -0.002354418914589
        0.004209036766081       -0.006232802372670       12.707955367784193

........................................................................
.............................. CYCLE    4 ..............................
........................................................................
     iter. time                 ...        0 min,  0.161 sec
          total energy          -9.542857498674524 Eh
            energy change       -0.28E-02 Eh
 
          gradient norm          0.046567366118002 Eh/a0
            max. gradient        0.014434959723354 Eh/a0
 
            step length          0.118785974234157 a0
            max. step            0.013025629505333 a0
 
       unit cell volume        459.095130430238271 A^3
 
       current lattice:  
       13.817043152296083       -0.009776454506003       -0.042344980802999
        0.011465632578764       17.656138265636024        0.012567829374801
        0.015274211017800        0.003068319250354       12.699503271058441

........................................................................
.............................. CYCLE    5 ..............................
........................................................................
     iter. time                 ...        0 min,  0.150 sec
          total energy          -9.543652071218746 Eh
            energy change       -0.79E-03 Eh
 
          gradient norm          0.042527411403118 Eh/a0
            max. gradient        0.018138664724061 Eh/a0
 
            step length          0.071448331192013 a0
            max. step            0.014434959723354 a0
 
       unit cell volume        458.507590015863912 A^3
 
       current lattice:  
       13.820880023748284       -0.018239480123270       -0.034377821256784
        0.005695213882141       17.645693977405397        0.003731916568841
        0.019855283427722       -0.000450079801572       12.687230168334203

........................................................................
.............................. CYCLE    6 ..............................
........................................................................
     iter. time                 ...        0 min,  0.149 sec
          total energy          -9.544303092175037 Eh
            energy change       -0.65E-03 Eh
 
          gradient norm          0.017136260307856 Eh/a0
            max. gradient        0.004819458395398 Eh/a0
 
            step length          0.028726820191060 a0
            max. step            0.018138664724061 a0
 
       unit cell volume        458.811356061031233 A^3
 
       current lattice:  
       13.819193247523451       -0.017293317527741       -0.037124867845537
        0.005640758752411       17.650575639422815        0.011321756508737
        0.021292552501499        0.002879111533651       12.693668031199628

........................................................................
.............................. CYCLE    7 ..............................
........................................................................
     iter. time                 ...        0 min,  0.148 sec
          total energy          -9.544600260875294 Eh
            energy change       -0.30E-03 Eh
 
          gradient norm          0.014543317468507 Eh/a0
            max. gradient        0.005418453052434 Eh/a0
 
            step length          0.033554075814876 a0
            max. step            0.004819458395398 a0
 
       unit cell volume        459.082044929092262 A^3
 
       current lattice:  
       13.820220935486404       -0.011984572799543       -0.035198159019211
        0.005691478419079       17.647817946967134        0.015483424368752
        0.021767470543385        0.004069570737011       12.702202169301932

........................................................................
.............................. CYCLE    8 ..............................
........................................................................
     iter. time                 ...        0 min,  0.154 sec
          total energy          -9.544773701703482 Eh
            energy change       -0.17E-03 Eh
 
          gradient norm          0.013819411558340 Eh/a0
            max. gradient        0.005317975160140 Eh/a0
 
            step length          0.031998538428510 a0
            max. step            0.005418453052434 a0
 
       unit cell volume        459.115593042555076 A^3
 
       current lattice:  
       13.818024979260979       -0.015100369199256       -0.034223844393864
        0.004515316734513       17.647542398863120        0.016878774742227
        0.021889059857222        0.004718025700662       12.705349743676912

........................................................................
.............................. CYCLE    9 ..............................
........................................................................
     iter. time                 ...        0 min,  0.152 sec
          total energy          -9.544926209592457 Eh
            energy change       -0.15E-03 Eh
 
          gradient norm          0.009204413065517 Eh/a0
            max. gradient        0.002563654832116 Eh/a0
 
            step length          0.031965101232417 a0
            max. step            0.005317975160140 a0
 
       unit cell volume        458.953922440069107 A^3
 
       current lattice:  
       13.815663485633673       -0.012585376945579       -0.030108566715730
        0.002003685398348       17.645842103367475        0.016650704937068
        0.020444638203639        0.004519048940343       12.704282352571553

........................................................................
.............................. CYCLE   10 ..............................
........................................................................
     iter. time                 ...        0 min,  0.148 sec
          total energy          -9.545043407438062 Eh
            energy change       -0.12E-03 Eh
 
          gradient norm          0.008150163782816 Eh/a0
            max. gradient        0.002472381493013 Eh/a0
 
            step length          0.030323172333014 a0
            max. step            0.002563654832116 a0
 
       unit cell volume        458.673891630272749 A^3
 
       current lattice:  
       13.811373489413565       -0.011618969141313       -0.025250611725794
        0.000528323010283       17.643193557708702        0.014627725635188
        0.017276384587240        0.005457969265952       12.702395314864505

........................................................................
.............................. CYCLE   11 ..............................
........................................................................
     iter. time                 ...        0 min,  0.163 sec
          total energy          -9.545139033700032 Eh
            energy change       -0.96E-04 Eh
 
          gradient norm          0.008701469130251 Eh/a0
            max. gradient        0.002659632612178 Eh/a0
 
            step length          0.027897459010922 a0
            max. step            0.002472381493013 a0
 
       unit cell volume        458.260221900133388 A^3
 
       current lattice:  
       13.805971693670637       -0.009591266573146       -0.020781544822708
       -0.001192798184577       17.641634644151353        0.013031683828255
        0.014486547904889        0.006692221319643       12.697037753763913

........................................................................
.............................. CYCLE   12 ..............................
........................................................................
     iter. time                 ...        0 min,  0.151 sec
          total energy          -9.545259548618542 Eh
            energy change       -0.12E-03 Eh
 
          gradient norm          0.008568457412526 Eh/a0
            max. gradient        0.002331422270751 Eh/a0
 
            step length          0.041733819764262 a0
            max. step            0.002659632612178 a0
 
       unit cell volume        457.544023625940781 A^3
 
       current lattice:  
       13.797035660527072       -0.007778350401647       -0.013989486830326
       -0.003023348888995       17.637896729645202        0.011357272843887
        0.010422599923987        0.010246860883124       12.688106613636171

........................................................................
.............................. CYCLE   13 ..............................
........................................................................
     iter. time                 ...        0 min,  0.146 sec
          total energy          -9.545368276882508 Eh
            energy change       -0.11E-03 Eh
 
          gradient norm          0.008177527683826 Eh/a0
            max. gradient        0.002138991953271 Eh/a0
 
            step length          0.042600233465612 a0
            max. step            0.002331422270751 a0
 
       unit cell volume        456.716508001033333 A^3
 
       current lattice:  
       13.787272136822940       -0.006638527266509       -0.007352506456497
       -0.004332244022403       17.633199067862744        0.010244346769427
        0.008120218745917        0.014333917154900       12.677512508073947

........................................................................
.............................. CYCLE   14 ..............................
........................................................................
     iter. time                 ...        0 min,  0.153 sec
          total energy          -9.545495561968266 Eh
            energy change       -0.13E-03 Eh
 
          gradient norm          0.009214113647306 Eh/a0
            max. gradient        0.002339534862979 Eh/a0
 
            step length          0.051489292036731 a0
            max. step            0.002138991953271 a0
 
       unit cell volume        455.605266812928051 A^3
 
       current lattice:  
       13.775402343287720       -0.007356572024969        0.001009482793139
       -0.006253645291319       17.624696672123484        0.011065012388682
        0.007092025425399        0.019556178108073       12.663679826201328

........................................................................
.............................. CYCLE   15 ..............................
........................................................................
     iter. time                 ...        0 min,  0.165 sec
          total energy          -9.545664522142710 Eh
            energy change       -0.17E-03 Eh
 
          gradient norm          0.012060609978798 Eh/a0
            max. gradient        0.004144364640094 Eh/a0
 
            step length          0.071866134682220 a0
            max. step            0.002339534862979 a0
 
       unit cell volume        453.967757624050591 A^3
 
       current lattice:  
       13.757741109865087       -0.009026175673771        0.011955775565167
       -0.007905121884204       17.611507982155199        0.011709427463389
        0.008224898340009        0.026579960121119       12.643837958448517

........................................................................
.............................. CYCLE   16 ..............................
........................................................................
     iter. time                 ...        0 min,  0.161 sec
          total energy          -9.545921715659802 Eh
            energy change       -0.26E-03 Eh
 
          gradient norm          0.015653952782225 Eh/a0
            max. gradient        0.004858166078518 Eh/a0
 
            step length          0.117354043835990 a0
            max. step            0.004144364640094 a0
 
       unit cell volume        451.172742981085491 A^3
 
       current lattice:  
       13.729025712160983       -0.014661758618459        0.030581377128151
       -0.013651986885807       17.585698876989575        0.017182705279226
        0.011862297085467        0.037444876372794       12.610800189801774

........................................................................
.............................. CYCLE   17 ..............................
........................................................................
     iter. time                 ...        0 min,  0.200 sec
          total energy          -9.546330406105231 Eh
            energy change       -0.41E-03 Eh
 
          gradient norm          0.018359644034446 Eh/a0
            max. gradient        0.004643369132439 Eh/a0
 
            step length          0.184322787881780 a0
            max. step            0.004858166078518 a0
 
       unit cell volume        446.722524470817746 A^3
 
       current lattice:  
       13.681303073018261       -0.022659170660564        0.057680560490876
       -0.021785564579220       17.544993845183299        0.023561450198497
        0.018432082949316        0.054590503242594       12.559140011262302

........................................................................
.............................. CYCLE   18 ..............................
........................................................................
     iter. time                 ...        0 min,  0.194 sec
          total energy          -9.546918533284320 Eh
            energy change       -0.59E-03 Eh
 
          gradient norm          0.019444110215186 Eh/a0
            max. gradient        0.005331028955011 Eh/a0
 
            step length          0.268375948402800 a0
            max. step            0.004643369132439 a0
 
       unit cell volume        440.180405122795548 A^3
 
       current lattice:  
       13.610317185855338       -0.035179019970884        0.096057643784597
       -0.038231183016007       17.482984635264721        0.036228410823445
        0.027551831128297        0.079723138740963       12.484136433455028

........................................................................
.............................. CYCLE   19 ..............................
........................................................................
     iter. time                 ...        0 min,  0.172 sec
          total energy          -9.547544793539712 Eh
            energy change       -0.63E-03 Eh
 
          gradient norm          0.018630588727063 Eh/a0
            max. gradient        0.005096214205154 Eh/a0
 
            step length          0.280238783955722 a0
            max. step            0.005331028955011 a0
 
       unit cell volume        433.364562345945444 A^3
 
       current lattice:  
       13.533207618311582       -0.045776868079037        0.132411106265265
       -0.057205319980994       17.419072916420763        0.048353525481989
        0.033965272613577        0.107238034458797       12.406555759697859

........................................................................
.............................. CYCLE   20 ..............................
........................................................................
     iter. time                 ...        0 min,  0.174 sec
          total energy          -9.548084468845506 Eh
            energy change       -0.54E-03 Eh
 
          gradient norm          0.016893164091528 Eh/a0
            max. gradient        0.003774765028331 Eh/a0
 
            step length          0.214531400831263 a0
            max. step            0.005096214205154 a0
 
       unit cell volume        428.204417812819770 A^3
 
       current lattice:  
       13.472390854983436       -0.051072240179534        0.156342117414190
       -0.074801362978817       17.371174774424688        0.057822628943647
        0.035313981463121        0.129368105767034       12.348402585978224

........................................................................
.............................. CYCLE   21 ..............................
........................................................................
     iter. time                 ...        0 min,  0.179 sec
          total energy          -9.548507053096582 Eh
            energy change       -0.42E-03 Eh
 
          gradient norm          0.014688904288977 Eh/a0
            max. gradient        0.004040713245247 Eh/a0
 
            step length          0.139577582260870 a0
            max. step            0.003774765028331 a0
 
       unit cell volume        424.974739695067512 A^3
 
       current lattice:  
       13.432352821847340       -0.050409609196636        0.167730390499486
       -0.086839744601570       17.342734491042012        0.062583865714893
        0.031735560295867        0.144356263604095       12.312065267914276

........................................................................
.............................. CYCLE   22 ..............................
........................................................................
     iter. time                 ...        0 min,  0.180 sec
          total energy          -9.548736078870762 Eh
            energy change       -0.23E-03 Eh
 
          gradient norm          0.010169319229504 Eh/a0
            max. gradient        0.003196576608945 Eh/a0
 
            step length          0.041114568210795 a0
            max. step            0.004040713245247 a0
 
       unit cell volume        424.474341861733137 A^3
 
       current lattice:  
       13.426851034249662       -0.047556008301022        0.170489819940823
       -0.085645674470555       17.340032560640221        0.061813562593099
        0.029785465949005        0.147107172062295       12.304494292228778

........................................................................
.............................. CYCLE   23 ..............................
........................................................................
     iter. time                 ...        0 min,  0.179 sec
          total energy          -9.548992306749835 Eh
            energy change       -0.26E-03 Eh
 
          gradient norm          0.009158363453842 Eh/a0
            max. gradient        0.002776619764755 Eh/a0
 
            step length          0.114701000454061 a0
            max. step            0.003196576608945 a0
 
       unit cell volume        421.919998120677860 A^3
 
       current lattice:  
       13.395133009072083       -0.045382500841034        0.176777080827799
       -0.094900897798297       17.316270878465282        0.065342806745669
        0.026959479514100        0.156892571459958       12.276295333313660

........................................................................
.............................. CYCLE   24 ..............................
........................................................................
     iter. time                 ...        0 min,  0.191 sec
          total energy          -9.549109498379757 Eh
            energy change       -0.12E-03 Eh
 
          gradient norm          0.008346707492452 Eh/a0
            max. gradient        0.002034469091243 Eh/a0
 
            step length          0.048470873487260 a0
            max. step            0.002776619764755 a0
 
       unit cell volume        420.966573028086088 A^3
 
       current lattice:  
       13.384983970632668       -0.044326216886334        0.182620682680193
       -0.094507551022196       17.307691476683342        0.065576013235864
        0.027087950506809        0.159375569820772       12.263938927134555

........................................................................
.............................. CYCLE   25 ..............................
........................................................................
     iter. time                 ...        0 min,  0.182 sec
          total energy          -9.549233689180854 Eh
            energy change       -0.12E-03 Eh
 
          gradient norm          0.007370880241482 Eh/a0
            max. gradient        0.001491213659191 Eh/a0
 
            step length          0.049873647450289 a0
            max. step            0.002034469091243 a0
 
       unit cell volume        420.212216806179526 A^3
 
       current lattice:  
       13.376364725556657       -0.042737784502212        0.181402960829476
       -0.096698299494399       17.297815696811409        0.066352175147738
        0.027354010177002        0.158827073691278       12.256849234042773

........................................................................
.............................. CYCLE   26 ..............................
........................................................................
     iter. time                 ...        0 min,  0.182 sec
          total energy          -9.549360515646978 Eh
            energy change       -0.13E-03 Eh
 
          gradient norm          0.006111196588208 Eh/a0
            max. gradient        0.001520800654062 Eh/a0
 
            step length          0.080208043630813 a0
            max. step            0.001491213659191 a0
 
       unit cell volume        418.574698689281547 A^3
 
       current lattice:  
       13.358756703244866       -0.042031303637247        0.190764058470492
       -0.096247593313326       17.282527064274202        0.066903265963693
        0.027547945528123        0.163096474151979       12.236036160134619

........................................................................
.............................. CYCLE   27 ..............................
........................................................................
     iter. time                 ...        0 min,  0.184 sec
          total energy          -9.549428161647306 Eh
            energy change       -0.68E-04 Eh
 
          gradient norm          0.005357809350248 Eh/a0
            max. gradient        0.001268412362819 Eh/a0
 
            step length          0.027890535912601 a0
            max. step            0.001520800654062 a0
 
       unit cell volume        418.535188062276347 A^3
 
       current lattice:  
       13.359100921334816       -0.041962974221430        0.186906653056929
       -0.095337186745995       17.279186854172448        0.066577884627511
        0.027865885198437        0.160390551527320       12.236911059851403

........................................................................
.............................. CYCLE   28 ..............................
........................................................................
     iter. time                 ...        0 min,  0.181 sec
          total energy          -9.549480236041871 Eh
            energy change       -0.52E-04 Eh
 
          gradient norm          0.005010750338350 Eh/a0
            max. gradient        0.001779508039812 Eh/a0
 
            step length          0.059606713905010 a0
            max. step            0.001268412362819 a0
 
       unit cell volume        417.301707712079974 A^3
 
       current lattice:  
       13.346158414261248       -0.043030234046111        0.193475599137215
       -0.095746627912403       17.267293556022942        0.065760387624545
        0.026585416486640        0.164714238288201       12.221104527299042

........................................................................
.............................. CYCLE   29 ..............................
........................................................................
     iter. time                 ...        0 min,  0.180 sec
          total energy          -9.549535952760117 Eh
            energy change       -0.56E-04 Eh
 
          gradient norm          0.005186458642825 Eh/a0
            max. gradient        0.001462113712533 Eh/a0
 
            step length          0.035252130456372 a0
            max. step            0.001779508039812 a0
 
       unit cell volume        417.848038195679294 A^3
 
       current lattice:  
       13.353074129325279       -0.043420650230471        0.184608095605531
       -0.093077315573820       17.268936889746140        0.065661243875014
        0.026002224182277        0.160933744813589       12.229555171239562

........................................................................
.............................. CYCLE   30 ..............................
........................................................................
     iter. time                 ...        0 min,  0.184 sec
          total energy          -9.549600022253580 Eh
            energy change       -0.64E-04 Eh
 
          gradient norm          0.005207673531559 Eh/a0
            max. gradient        0.001541927611537 Eh/a0
 
            step length          0.072212749085255 a0
            max. step            0.001462113712533 a0
 
       unit cell volume        416.393650386450417 A^3
 
       current lattice:  
       13.338381690213732       -0.046246652604423        0.190759009639873
       -0.094288769417104       17.253862429940494        0.063474403523606
        0.022941380975514        0.165765336497577       12.211058011351236

........................................................................
.............................. CYCLE   31 ..............................
........................................................................
     iter. time                 ...        0 min,  0.183 sec
          total energy          -9.549653002220335 Eh
            energy change       -0.53E-04 Eh
 
          gradient norm          0.004606073592744 Eh/a0
            max. gradient        0.001109403093590 Eh/a0
 
            step length          0.039312478202500 a0
            max. step            0.001541927611537 a0
 
       unit cell volume        417.130346035353625 A^3
 
       current lattice:  
       13.348171215309748       -0.047752399985064        0.179921426438477
       -0.090560754376748       17.256618962257882        0.063078452248147
        0.021711117955241        0.162155879176579       12.221681179827105

........................................................................
.............................. CYCLE   32 ..............................
........................................................................
     iter. time                 ...        0 min,  0.198 sec
          total energy          -9.549701938189477 Eh
            energy change       -0.49E-04 Eh
 
          gradient norm          0.004478167035226 Eh/a0
            max. gradient        0.001067967526369 Eh/a0
 
            step length          0.079653148361170 a0
            max. step            0.001109403093590 a0
 
       unit cell volume        415.494670477904492 A^3
 
       current lattice:  
       13.331124140105961       -0.050531850074465        0.185784744797728
       -0.092553495515860       17.239768590484942        0.062331727155726
        0.018642507311696        0.167414262912842       12.201239401457038

........................................................................
.............................. CYCLE   33 ..............................
........................................................................
     iter. time                 ...        0 min,  0.202 sec
          total energy          -9.549747312321292 Eh
            energy change       -0.45E-04 Eh
 
          gradient norm          0.004940686756067 Eh/a0
            max. gradient        0.001229928012124 Eh/a0
 
            step length          0.062337397025843 a0
            max. step            0.001067967526369 a0
 
       unit cell volume        416.872991024524367 A^3
 
       current lattice:  
       13.349387817175229       -0.051484040287557        0.171076225071684
       -0.087221593469980       17.248426283122082        0.060165050370120
        0.017214865348457        0.159519663299760       12.218728227570665

........................................................................
.............................. CYCLE   34 ..............................
........................................................................
     iter. time                 ...        0 min,  0.188 sec
          total energy          -9.549807311665315 Eh
            energy change       -0.60E-04 Eh
 
          gradient norm          0.005993913839463 Eh/a0
            max. gradient        0.001455775552947 Eh/a0
 
            step length          0.111963562931511 a0
            max. step            0.001229928012124 a0
 
       unit cell volume        414.567445333194087 A^3
 
       current lattice:  
       13.324585783104991       -0.054496100667778        0.178737431814544
       -0.089205657590971       17.224882773185936        0.061920721885324
        0.014698560554999        0.167391593768012       12.190454447461677

........................................................................
.............................. CYCLE   35 ..............................
........................................................................
     iter. time                 ...        0 min,  0.254 sec
          total energy          -9.549875177427163 Eh
            energy change       -0.68E-04 Eh
 
          gradient norm          0.005544261483999 Eh/a0
            max. gradient        0.001331477197483 Eh/a0
 
            step length          0.053047384661577 a0
            max. step            0.001455775552947 a0
 
       unit cell volume        415.574076488258413 A^3
 
       current lattice:  
       13.339792992949969       -0.054522308153184        0.165869661604607
       -0.084210369054055       17.229937352603891        0.059071367452151
        0.012509193304327        0.159522538516811       12.202429212891937

........................................................................
.............................. CYCLE   36 ..............................
........................................................................
     iter. time                 ...        0 min,  0.208 sec
          total energy          -9.549945619226049 Eh
            energy change       -0.70E-04 Eh
 
          gradient norm          0.005715740617606 Eh/a0
            max. gradient        0.001643089206306 Eh/a0
 
            step length          0.109336799695685 a0
            max. step            0.001331477197483 a0
 
       unit cell volume        413.427173441253331 A^3
 
       current lattice:  
       13.317745514512357       -0.057271554444342        0.171322828365131
       -0.084389695193184       17.207312123129562        0.061242579145643
        0.011116248523905        0.165606899631654       12.175520682151856

........................................................................
.............................. CYCLE   37 ..............................
........................................................................
     iter. time                 ...        0 min,  0.248 sec
          total energy          -9.550016348050455 Eh
            energy change       -0.71E-04 Eh
 
          gradient norm          0.004822470919070 Eh/a0
            max. gradient        0.001548125573853 Eh/a0
 
            step length          0.065331104605025 a0
            max. step            0.001643089206306 a0
 
       unit cell volume        414.482679745023802 A^3
 
       current lattice:  
       13.333929025347766       -0.055855794970156        0.155127617548000
       -0.077603717550522       17.211254893778520        0.058940421121251
        0.008626434743845        0.157157847253168       12.188873612955149

........................................................................
.............................. CYCLE   38 ..............................
........................................................................
     iter. time                 ...        0 min,  0.189 sec
          total energy          -9.550066739306839 Eh
            energy change       -0.50E-04 Eh
 
          gradient norm          0.004521722517679 Eh/a0
            max. gradient        0.001371134056314 Eh/a0
 
            step length          0.086014085429534 a0
            max. step            0.001548125573853 a0
 
       unit cell volume        412.910369679351390 A^3
 
       current lattice:  
       13.318802084968111       -0.057572497974698        0.159003072425865
       -0.076644268299732       17.193726979621971        0.058857732352054
        0.006434245568989        0.160948381868246       12.168815027300482

........................................................................
.............................. CYCLE   39 ..............................
........................................................................
     iter. time                 ...        0 min,  0.185 sec
          total energy          -9.550102698431559 Eh
            energy change       -0.36E-04 Eh
 
          gradient norm          0.004266263476765 Eh/a0
            max. gradient        0.001302912485798 Eh/a0
 
            step length          0.032751497613401 a0
            max. step            0.001371134056314 a0
 
       unit cell volume        413.195856602433537 A^3
 
       current lattice:  
       13.323261752345184       -0.057250096533411        0.150368221633666
       -0.073068609558795       17.192340661125613        0.058692225101736
        0.005273892760543        0.157679439692356       12.174090592668106

........................................................................
.............................. CYCLE   40 ..............................
........................................................................
     iter. time                 ...        0 min,  0.184 sec
          total energy          -9.550138553859767 Eh
            energy change       -0.36E-04 Eh
 
          gradient norm          0.004348170220580 Eh/a0
            max. gradient        0.001462604907403 Eh/a0
 
            step length          0.044855773526234 a0
            max. step            0.001302912485798 a0
 
       unit cell volume        412.600580647981019 A^3
 
       current lattice:  
       13.318544092149088       -0.057103848081523        0.151392644844100
       -0.070474060782071       17.184029136019369        0.056460088986198
        0.002700082230089        0.158169931328971       12.166684262431827

........................................................................
.............................. CYCLE   41 ..............................
........................................................................
     iter. time                 ...        0 min,  0.186 sec
          total energy          -9.550181678203632 Eh
            energy change       -0.43E-04 Eh
 
          gradient norm          0.004165672650117 Eh/a0
            max. gradient        0.001129253224318 Eh/a0
 
            step length          0.036829481830244 a0
            max. step            0.001462604907403 a0
 
       unit cell volume        412.498352260949446 A^3
 
       current lattice:  
       13.318019928524159       -0.058116197530616        0.143578902735112
       -0.067107678343035       17.177806510313189        0.055557992006057
        0.000309579878051        0.155315662773797       12.168502759539845

........................................................................
.............................. CYCLE   42 ..............................
........................................................................
     iter. time                 ...        0 min,  0.186 sec
          total energy          -9.550225671359803 Eh
            energy change       -0.44E-04 Eh
 
          gradient norm          0.004159803197384 Eh/a0
            max. gradient        0.001010875784828 Eh/a0
 
            step length          0.043414817951491 a0
            max. step            0.001129253224318 a0
 
       unit cell volume        412.174747439640726 A^3
 
       current lattice:  
       13.316062757458907       -0.057841355674670        0.141269146474717
       -0.061851218536712       17.170891172001184        0.051939420017074
       -0.003065272229547        0.153167582475415       12.165548704409920

........................................................................
.............................. CYCLE   43 ..............................
........................................................................
     iter. time                 ...        0 min,  0.187 sec
          total energy          -9.550266767841780 Eh
            energy change       -0.41E-04 Eh
 
          gradient norm          0.004586951049260 Eh/a0
            max. gradient        0.001288020654564 Eh/a0
 
            step length          0.040900532409225 a0
            max. step            0.001010875784828 a0
 
       unit cell volume        411.902138417409901 A^3
 
       current lattice:  
       13.313550891448134       -0.058784672061652        0.135274379276022
       -0.058799383238204       17.163240658340452        0.049631305400783
       -0.006344670792669        0.150133123907763       12.165148398495599

........................................................................
.............................. CYCLE   44 ..............................
........................................................................
     iter. time                 ...        0 min,  0.185 sec
          total energy          -9.550311142064688 Eh
            energy change       -0.44E-04 Eh
 
          gradient norm          0.005080006386025 Eh/a0
            max. gradient        0.001348019317393 Eh/a0
 
            step length          0.042828068859869 a0
            max. step            0.001288020654564 a0
 
       unit cell volume        411.589980664702296 A^3
 
       current lattice:  
       13.311380513557229       -0.059992932338201        0.131307397946307
       -0.052801056491367       17.156797947463442        0.045915339198779
       -0.009697287687924        0.146534194416992       12.162387434592143

........................................................................
.............................. CYCLE   45 ..............................
........................................................................
     iter. time                 ...        0 min,  0.186 sec
          total energy          -9.550365260674914 Eh
            energy change       -0.54E-04 Eh
 
          gradient norm          0.005198801423610 Eh/a0
            max. gradient        0.001682681675121 Eh/a0
 
            step length          0.048867546393444 a0
            max. step            0.001348019317393 a0
 
       unit cell volume        411.247593940298998 A^3
 
       current lattice:  
       13.308853081626983       -0.060692292074105        0.125209836784109
       -0.048612633529032       17.148661151181397        0.042166186768755
       -0.013268416976901        0.142132715181946       12.160261001215469

........................................................................
.............................. CYCLE   46 ..............................
........................................................................
     iter. time                 ...        0 min,  0.210 sec
          total energy          -9.550429724683511 Eh
            energy change       -0.64E-04 Eh
 
          gradient norm          0.006071499001836 Eh/a0
            max. gradient        0.001511519491615 Eh/a0
 
            step length          0.071866095785177 a0
            max. step            0.001682681675121 a0
 
       unit cell volume        410.451280286497592 A^3
 
       current lattice:  
       13.302040157901574       -0.063134205118086        0.122012320570809
       -0.040978752140751       17.137408955468651        0.037985264950309
       -0.017912152022645        0.139020363124625       12.150803012561633

........................................................................
.............................. CYCLE   47 ..............................
........................................................................
     iter. time                 ...        0 min,  0.207 sec
          total energy          -9.550507166285012 Eh
            energy change       -0.77E-04 Eh
 
          gradient norm          0.006162622764948 Eh/a0
            max. gradient        0.001918885308986 Eh/a0
 
            step length          0.076050483744898 a0
            max. step            0.001511519491615 a0
 
       unit cell volume        409.974718588403334 A^3
 
       current lattice:  
       13.299451592568081       -0.065193651664233        0.110954984191269
       -0.033801355999482       17.124914246061092        0.032330541678812
       -0.023312175937894        0.131093815511825       12.147802229000938

........................................................................
.............................. CYCLE   48 ..............................
........................................................................
     iter. time                 ...        0 min,  0.196 sec
          total energy          -9.550583934678334 Eh
            energy change       -0.77E-04 Eh
 
          gradient norm          0.005615947353255 Eh/a0
            max. gradient        0.001787970937552 Eh/a0
 
            step length          0.094685084117581 a0
            max. step            0.001918885308986 a0
 
       unit cell volume        408.720897327873274 A^3
 
       current lattice:  
       13.288236346298870       -0.067536764135407        0.110275547073248
       -0.026622732966206       17.108543450085858        0.028028896776240
       -0.028742739747612        0.129837204911866       12.132369609337246

........................................................................
.............................. CYCLE   49 ..............................
........................................................................
     iter. time                 ...        0 min,  0.192 sec
          total energy          -9.550644885527626 Eh
            energy change       -0.61E-04 Eh
 
          gradient norm          0.005291707961991 Eh/a0
            max. gradient        0.001182539465314 Eh/a0
 
            step length          0.057379860925859 a0
            max. step            0.001787970937552 a0
 
       unit cell volume        408.759250054562699 A^3
 
       current lattice:  
       13.290615800740966       -0.069235834975618        0.099599697025772
       -0.021058649991836       17.102744752719069        0.025451606652236
       -0.032656898506716        0.123456823399091       12.135395032757959

........................................................................
.............................. CYCLE   50 ..............................
........................................................................
     iter. time                 ...        0 min,  0.194 sec
          total energy          -9.550704440190934 Eh
            energy change       -0.60E-04 Eh
 
          gradient norm          0.005621789479579 Eh/a0
            max. gradient        0.001515178395714 Eh/a0
 
            step length          0.099253366557915 a0
            max. step            0.001182539465314 a0
 
       unit cell volume        407.206976858371490 A^3
 
       current lattice:  
       13.276222584813896       -0.071088085255050        0.102087599951042
       -0.016362546250775       17.082622984926882        0.021010157553031
       -0.038751965886623        0.123888339616710       12.116572056348327

........................................................................
.............................. CYCLE   51 ..............................
........................................................................
     iter. time                 ...        0 min,  0.192 sec
          total energy          -9.550775443616727 Eh
            energy change       -0.71E-04 Eh
 
          gradient norm          0.005051161651187 Eh/a0
            max. gradient        0.001119508625238 Eh/a0
 
            step length          0.071917287118561 a0
            max. step            0.001515178395714 a0
 
       unit cell volume        407.614168028402105 A^3
 
       current lattice:  
       13.282478678456030       -0.072570615873051        0.088526726996863
       -0.009553094667227       17.079447577267072        0.018772503147914
       -0.043314955401561        0.116484440338976       12.125188843560728

........................................................................
.............................. CYCLE   52 ..............................
........................................................................
     iter. time                 ...        0 min,  0.194 sec
          total energy          -9.550828863511001 Eh
            energy change       -0.53E-04 Eh
 
          gradient norm          0.004704700477905 Eh/a0
            max. gradient        0.001153323693096 Eh/a0
 
            step length          0.084123605245773 a0
            max. step            0.001119508625238 a0
 
       unit cell volume        406.274053593626945 A^3
 
       current lattice:  
       13.269750309366561       -0.074372727408139        0.089295497854246
       -0.006666305030562       17.061181971143611        0.015466517561889
       -0.049012915605918        0.116644063108610       12.109793751829164

........................................................................
.............................. CYCLE   53 ..............................
........................................................................
     iter. time                 ...        0 min,  0.196 sec
          total energy          -9.550873967837386 Eh
            energy change       -0.45E-04 Eh
 
          gradient norm          0.004023461417284 Eh/a0
            max. gradient        0.001034588688908 Eh/a0
 
            step length          0.058609637631279 a0
            max. step            0.001153323693096 a0
 
       unit cell volume        406.970624997357277 A^3
 
       current lattice:  
       13.279086369427933       -0.075255588350503        0.077477818561248
       -0.000702200056329       17.062603330512282        0.012545568452418
       -0.052188727184637        0.109875847594171       12.120994670694923

........................................................................
.............................. CYCLE   54 ..............................
........................................................................
     iter. time                 ...        0 min,  0.195 sec
          total energy          -9.550904685336137 Eh
            energy change       -0.31E-04 Eh
 
          gradient norm          0.004122517185607 Eh/a0
            max. gradient        0.001292993305428 Eh/a0
 
            step length          0.064780342300329 a0
            max. step            0.001034588688908 a0
 
       unit cell volume        405.834655314477970 A^3
 
       current lattice:  
       13.267602388910291       -0.076823411847285        0.078767014338526
        0.001117467540867       17.048776407465912        0.011128554476990
       -0.054959026102428        0.111306938255801       12.107397579615437

........................................................................
.............................. CYCLE   55 ..............................
........................................................................
     iter. time                 ...        0 min,  0.193 sec
          total energy          -9.550936564014032 Eh
            energy change       -0.32E-04 Eh
 
          gradient norm          0.004025065544253 Eh/a0
            max. gradient        0.001170419709573 Eh/a0
 
            step length          0.058296313556052 a0
            max. step            0.001292993305428 a0
 
       unit cell volume        406.762759352931880 A^3
 
       current lattice:  
       13.280713123364524       -0.077678453737717        0.066843201964280
        0.007257160984014       17.053284483668950        0.006924441295751
       -0.056717035827273        0.103525835752604       12.119886255969108

........................................................................
.............................. CYCLE   56 ..............................
........................................................................
     iter. time                 ...        0 min,  0.199 sec
          total energy          -9.550965323300108 Eh
            energy change       -0.29E-04 Eh
 
          gradient norm          0.003582772719127 Eh/a0
            max. gradient        0.001170921324741 Eh/a0
 
            step length          0.058075653931288 a0
            max. step            0.001170419709573 a0
 
       unit cell volume        405.795285083853287 A^3
 
       current lattice:  
       13.271451173101450       -0.079686469868183        0.067219517014880
        0.010014465645198       17.041538425945237        0.005766833469865
       -0.058074405506707        0.105258208539694       12.107809308346901

........................................................................
.............................. CYCLE   57 ..............................
........................................................................
     iter. time                 ...        0 min,  0.208 sec
          total energy          -9.550987566193907 Eh
            energy change       -0.22E-04 Eh
 
          gradient norm          0.003307655816662 Eh/a0
            max. gradient        0.000785829102385 Eh/a0
 
            step length          0.040674486063119 a0
            max. step            0.001170921324741 a0
 
       unit cell volume        406.435231612219695 A^3
 
       current lattice:  
       13.281744696002383       -0.079855059656725        0.058758428479775
        0.014501515540544       17.044049234175933        0.003257816102929
       -0.058389903588411        0.100071894438566       12.115720237930464

........................................................................
.............................. CYCLE   58 ..............................
........................................................................
     iter. time                 ...        0 min,  0.205 sec
          total energy          -9.551007379173035 Eh
            energy change       -0.20E-04 Eh
 
          gradient norm          0.003501995784435 Eh/a0
            max. gradient        0.001306176432695 Eh/a0
 
            step length          0.045075441511615 a0
            max. step            0.000785829102385 a0
 
       unit cell volume        405.671367222097047 A^3
 
       current lattice:  
       13.275444386188408       -0.082329046369037        0.059353384513014
        0.016380608781288       17.034633324258937        0.002225573641910
       -0.059228072154088        0.101799374754488       12.105353507373259

........................................................................
.............................. CYCLE   59 ..............................
........................................................................
     iter. time                 ...        0 min,  0.250 sec
          total energy          -9.551028089580459 Eh
            energy change       -0.21E-04 Eh
 
          gradient norm          0.003564731963852 Eh/a0
            max. gradient        0.000878906868716 Eh/a0
 
            step length          0.034838021453901 a0
            max. step            0.001306176432695 a0
 
       unit cell volume        406.215689050476385 A^3
 
       current lattice:  
       13.284092351960258       -0.081741988467623        0.051725132396498
        0.019730752741258       17.036318839484537        0.001577150421828
       -0.059452432249629        0.098196989291579       12.112521734499225

........................................................................
.............................. CYCLE   60 ..............................
........................................................................
     iter. time                 ...        0 min,  0.197 sec
          total energy          -9.551053508321299 Eh
            energy change       -0.25E-04 Eh
 
          gradient norm          0.003603434028499 Eh/a0
            max. gradient        0.000846686818108 Eh/a0
 
            step length          0.045883479693696 a0
            max. step            0.000878906868716 a0
 
       unit cell volume        405.481739268898707 A^3
 
       current lattice:  
       13.279473646804135       -0.083619260251518        0.052950294491110
        0.020518892355227       17.026036276656395        0.000676470355828
       -0.060845063846254        0.099597715416874       12.102124476423915

........................................................................
.............................. CYCLE   61 ..............................
........................................................................
     iter. time                 ...        0 min,  0.191 sec
          total energy          -9.551086922580497 Eh
            energy change       -0.33E-04 Eh
 
          gradient norm          0.003426364236766 Eh/a0
            max. gradient        0.000849810842673 Eh/a0
 
            step length          0.048147407278260 a0
            max. step            0.000846686818108 a0
 
       unit cell volume        406.081850435589217 A^3
 
       current lattice:  
       13.289735191954215       -0.084242651904587        0.041797553241770
        0.024278273986765       17.026563289913671        0.000326231368282
       -0.061790302403555        0.094801290839909       12.110331136472404

........................................................................
.............................. CYCLE   62 ..............................
........................................................................
     iter. time                 ...        0 min,  0.196 sec
          total energy          -9.551121052047890 Eh
            energy change       -0.34E-04 Eh
 
          gradient norm          0.003320114282494 Eh/a0
            max. gradient        0.000851983345249 Eh/a0
 
            step length          0.059266559487593 a0
            max. step            0.000849810842673 a0
 
       unit cell volume        405.282072305675001 A^3
 
       current lattice:  
       13.285702740233306       -0.085450961769785        0.041312066487239
        0.025503774926160       17.013684443612750       -0.000159134130484
       -0.064059872726150        0.095307733495954       12.099285144006869

........................................................................
.............................. CYCLE   63 ..............................
........................................................................
     iter. time                 ...        0 min,  0.195 sec
          total energy          -9.551147189838153 Eh
            energy change       -0.26E-04 Eh
 
          gradient norm          0.003130427842140 Eh/a0
            max. gradient        0.001001932739503 Eh/a0
 
            step length          0.043093416172479 a0
            max. step            0.000851983345249 a0
 
       unit cell volume        405.607329311010687 A^3
 
       current lattice:  
       13.292814992419265       -0.086974740246728        0.032267225535297
        0.027509617246474       17.011541221524034       -0.000214751946451
       -0.065452467013093        0.090760157464059       12.104070116006012

........................................................................
.............................. CYCLE   64 ..............................
........................................................................
     iter. time                 ...        0 min,  0.228 sec
          total energy          -9.551163786330187 Eh
            energy change       -0.17E-04 Eh
 
          gradient norm          0.003430157294803 Eh/a0
            max. gradient        0.001006842879702 Eh/a0
 
            step length          0.033617824923906 a0
            max. step            0.001001932739503 a0
 
       unit cell volume        405.173591356277996 A^3
 
       current lattice:  
       13.289768232334700       -0.087930940357320        0.030911186921461
        0.028919970850251       17.005019803493461       -0.000342520776098
       -0.066354506616962        0.089998040996616       12.098532227131722

........................................................................
.............................. CYCLE   65 ..............................
........................................................................
     iter. time                 ...        0 min,  0.247 sec
          total energy          -9.551181436331573 Eh
            energy change       -0.18E-04 Eh
 
          gradient norm          0.003122271716920 Eh/a0
            max. gradient        0.000922348313625 Eh/a0
 
            step length          0.029707185343989 a0
            max. step            0.001006842879702 a0
 
       unit cell volume        405.224700569326217 A^3
 
       current lattice:  
       13.292669445367631       -0.089160469235244        0.026184862555178
        0.029919304350866       17.001942715002532       -0.000524106540972
       -0.066888775023801        0.086736591305014       12.099622000260515

........................................................................
.............................. CYCLE   66 ..............................
........................................................................
     iter. time                 ...        0 min,  0.220 sec
          total energy          -9.551197370391705 Eh
            energy change       -0.16E-04 Eh
 
          gradient norm          0.002854635800869 Eh/a0
            max. gradient        0.000810564020054 Eh/a0
 
            step length          0.027127181081163 a0
            max. step            0.000922348313625 a0
 
       unit cell volume        404.913435335213649 A^3
 
       current lattice:  
       13.290338833219156       -0.091063167367697        0.024904794322222
        0.031297200319883       16.997147955644497        0.000029757088354
       -0.066930830991632        0.085525882983241       12.095858558294298

........................................................................
.............................. CYCLE   67 ..............................
........................................................................
     iter. time                 ...        0 min,  0.258 sec
          total energy          -9.551211101877069 Eh
            energy change       -0.14E-04 Eh
 
          gradient norm          0.002677609450722 Eh/a0
            max. gradient        0.000911892161113 Eh/a0
 
            step length          0.026583157991584 a0
            max. step            0.000810564020054 a0
 
       unit cell volume        404.975923867178494 A^3
 
       current lattice:  
       13.292767995226464       -0.092223279016428        0.020138707256806
        0.032711855544336       16.994614900562844       -0.000258148502331
       -0.066760976048475        0.082314950537764       12.097331355701741

........................................................................
.............................. CYCLE   68 ..............................
........................................................................
     iter. time                 ...        0 min,  0.198 sec
          total energy          -9.551222464529364 Eh
            energy change       -0.11E-04 Eh
 
          gradient norm          0.002491070973798 Eh/a0
            max. gradient        0.000602044284351 Eh/a0
 
            step length          0.023232093077294 a0
            max. step            0.000911892161113 a0
 
       unit cell volume        404.666115953125768 A^3
 
       current lattice:  
       13.290453967977378       -0.093739144185248        0.021048258762655
        0.033017475597025       16.990311830684195        0.000728147278817
       -0.066576352692863        0.082580546619304       12.093239729987806

........................................................................
.............................. CYCLE   69 ..............................
........................................................................
     iter. time                 ...        0 min,  0.195 sec
          total energy          -9.551233091394263 Eh
            energy change       -0.11E-04 Eh
 
          gradient norm          0.002340218568467 Eh/a0
            max. gradient        0.000473838788469 Eh/a0
 
            step length          0.019070555535428 a0
            max. step            0.000602044284351 a0
 
       unit cell volume        404.793128998875773 A^3
 
       current lattice:  
       13.293080918962616       -0.094963954580615        0.017077996160922
        0.033745675308172       16.989077319102645        0.001248431415548
       -0.066176179252753        0.080448905425873       12.095540712829584

........................................................................
.............................. CYCLE   70 ..............................
........................................................................
     iter. time                 ...        0 min,  0.199 sec
          total energy          -9.551249977645954 Eh
            energy change       -0.17E-04 Eh
 
          gradient norm          0.002434020177400 Eh/a0
            max. gradient        0.000668914971498 Eh/a0
 
            step length          0.028191080912218 a0
            max. step            0.000473838788469 a0
 
       unit cell volume        404.352747016256387 A^3
 
       current lattice:  
       13.289569280992938       -0.096041351511849        0.019092537583393
        0.033532030171101       16.983514087496847        0.002019483875274
       -0.065806799593006        0.081645167023059       12.089526465568236

........................................................................
.............................. CYCLE   71 ..............................
........................................................................
     iter. time                 ...        0 min,  0.206 sec
          total energy          -9.551262851263029 Eh
            energy change       -0.13E-04 Eh
 
          gradient norm          0.002051715108192 Eh/a0
            max. gradient        0.000610234249207 Eh/a0
 
            step length          0.023942519994097 a0
            max. step            0.000668914971498 a0
 
       unit cell volume        404.529011587821401 A^3
 
       current lattice:  
       13.293219558040615       -0.097820288235934        0.014707505957883
        0.033770866978778       16.982219007843280        0.003486307175417
       -0.064907439121571        0.079674155584575       12.092422417893790

........................................................................
.............................. CYCLE   72 ..............................
........................................................................
     iter. time                 ...        0 min,  0.197 sec
          total energy          -9.551272887262378 Eh
            energy change       -0.10E-04 Eh
 
          gradient norm          0.002065486234225 Eh/a0
            max. gradient        0.000441068535647 Eh/a0
 
            step length          0.028087533461996 a0
            max. step            0.000610234249207 a0
 
       unit cell volume        404.028124914685009 A^3
 
       current lattice:  
       13.288924487638097       -0.098774057343001        0.016839969500512
        0.032876438152201       16.975966929702103        0.004471846620139
       -0.064101776487222        0.080961190383468       12.085800925783127

........................................................................
.............................. CYCLE   73 ..............................
........................................................................
     iter. time                 ...        0 min,  0.197 sec
          total energy          -9.551280236267624 Eh
            energy change       -0.73E-05 Eh
 
          gradient norm          0.002094181850897 Eh/a0
            max. gradient        0.000642378461124 Eh/a0
 
            step length          0.017152196938325 a0
            max. step            0.000441068535647 a0
 
       unit cell volume        404.209597300095595 A^3
 
       current lattice:  
       13.291801395072763       -0.099754783367754        0.013829294680131
        0.033236125326156       16.976066857470915        0.005215253476519
       -0.062919409464378        0.079473490346390       12.088556421558161

........................................................................
.............................. CYCLE   74 ..............................
........................................................................
     iter. time                 ...        0 min,  0.200 sec
          total energy          -9.551288412637001 Eh
            energy change       -0.82E-05 Eh
 
          gradient norm          0.002043223127013 Eh/a0
            max. gradient        0.000576515858150 Eh/a0
 
            step length          0.024320096346676 a0
            max. step            0.000642378461124 a0
 
       unit cell volume        403.735969728569444 A^3
 
       current lattice:  
       13.287208371633483       -0.100711769581604        0.015722936566897
        0.032217776354672       16.970241859737040        0.006444506445320
       -0.061665763817240        0.080180738581264       12.082713658356077

........................................................................
.............................. CYCLE   75 ..............................
........................................................................
     iter. time                 ...        0 min,  0.217 sec
          total energy          -9.551298273447886 Eh
            energy change       -0.99E-05 Eh
 
          gradient norm          0.002162918087143 Eh/a0
            max. gradient        0.000590300671902 Eh/a0
 
            step length          0.023201791446569 a0
            max. step            0.000576515858150 a0
 
       unit cell volume        404.029597057558533 A^3
 
       current lattice:  
       13.291263547040836       -0.101452597886861        0.011943451263424
        0.033171606252956       16.970886570699196        0.006996662726351
       -0.059489316659971        0.077219850827444       12.087367334063417

........................................................................
.............................. CYCLE   76 ..............................
........................................................................
     iter. time                 ...        0 min,  0.206 sec
          total energy          -9.551311231760609 Eh
            energy change       -0.13E-04 Eh
 
          gradient norm          0.002363080603151 Eh/a0
            max. gradient        0.000586202139186 Eh/a0
 
            step length          0.042549648863321 a0
            max. step            0.000590300671902 a0
 
       unit cell volume        403.240513321259129 A^3
 
       current lattice:  
       13.282866544683554       -0.103410291419342        0.015830262604196
        0.031915190224559       16.961643454166559        0.009214624035369
       -0.056786293854318        0.078463748041153       12.077964552027924

........................................................................
.............................. CYCLE   77 ..............................
........................................................................
     iter. time                 ...        0 min,  0.198 sec
          total energy          -9.551327402998449 Eh
            energy change       -0.16E-04 Eh
 
          gradient norm          0.002439500747038 Eh/a0
            max. gradient        0.000606406622364 Eh/a0
 
            step length          0.035125031880740 a0
            max. step            0.000586202139186 a0
 
       unit cell volume        403.578592934146116 A^3
 
       current lattice:  
       13.287901354453858       -0.104481959253381        0.010980285483738
        0.033174821191475       16.960771608774852        0.010843363447829
       -0.052984539977772        0.073369242799334       12.084151122498387

........................................................................
.............................. CYCLE   78 ..............................
........................................................................
     iter. time                 ...        0 min,  0.198 sec
          total energy          -9.551342493706848 Eh
            energy change       -0.15E-04 Eh
 
          gradient norm          0.002797313395191 Eh/a0
            max. gradient        0.000833402806911 Eh/a0
 
            step length          0.040961107712838 a0
            max. step            0.000606406622364 a0
 
       unit cell volume        402.933516358561121 A^3
 
       current lattice:  
       13.281178591185128       -0.107085419836543        0.013919534327564
        0.033065522078758       16.952129162391479        0.012658144317414
       -0.049948587985899        0.072930935423309       12.077091657778263

........................................................................
.............................. CYCLE   79 ..............................
........................................................................
     iter. time                 ...        0 min,  0.200 sec
          total energy          -9.551358622089033 Eh
            energy change       -0.16E-04 Eh
 
          gradient norm          0.003183201352935 Eh/a0
            max. gradient        0.001225211019835 Eh/a0
 
            step length          0.035840106670237 a0
            max. step            0.000833402806911 a0
 
       unit cell volume        403.186208311568862 A^3
 
       current lattice:  
       13.285056348232347       -0.107928875371996        0.010022160746866
        0.034599556224499       16.949998144784853        0.015129108717631
[...]
            energy change       -0.11E-05 Eh
 
          gradient norm          0.000773029213775 Eh/a0
            max. gradient        0.000238155805970 Eh/a0
 
            step length          0.009182239847054 a0
            max. step            0.000247625920235 a0
 
       unit cell volume        400.974632360453654 A^3
 
       current lattice:  
       13.277284336406499       -0.124406779825042       -0.003439645715521
        0.073383252498409       16.838005584325938        0.009039053618625
       -0.018719268879242       -0.005424456763640       12.103080798283925

........................................................................
.............................. CYCLE  128 ..............................
........................................................................
     iter. time                 ...        0 min,  0.209 sec
          total energy          -9.551598534005057 Eh
            energy change       -0.86E-06 Eh
 
          gradient norm          0.000637444193286 Eh/a0
            max. gradient        0.000177614701264 Eh/a0
 
            step length          0.007724249835602 a0
            max. step            0.000238155805970 a0
 
       unit cell volume        400.919104422868202 A^3
 
       current lattice:  
       13.276518568466052       -0.124369529733185       -0.003112024077548
        0.073658069261072       16.836252067986031        0.008854348076495
       -0.018418400980073       -0.005929828746855       12.103360654631482

........................................................................
.............................. CYCLE  129 ..............................
........................................................................
     iter. time                 ...        0 min,  0.208 sec
          total energy          -9.551599127710132 Eh
            energy change       -0.59E-06 Eh
 
          gradient norm          0.000530014636600 Eh/a0
            max. gradient        0.000138057747754 Eh/a0
 
            step length          0.005655121369522 a0
            max. step            0.000177614701264 a0
 
       unit cell volume        401.002319406684478 A^3
 
       current lattice:  
       13.277637355746487       -0.124118977626750       -0.003871362162554
        0.074046980732510       16.836209587118343        0.008298397827808
       -0.018305612108678       -0.006728408674922       12.104882576252672

........................................................................
.............................. CYCLE  130 ..............................
........................................................................
     iter. time                 ...        0 min,  0.210 sec
          total energy          -9.551599606977296 Eh
            energy change       -0.48E-06 Eh
 
          gradient norm          0.000504885939565 Eh/a0
            max. gradient        0.000114047995343 Eh/a0
 
            step length          0.006341104891389 a0
            max. step            0.000138057747754 a0
 
       unit cell volume        400.937986720524407 A^3
 
       current lattice:  
       13.277002604007505       -0.124242958809472       -0.003319206126563
        0.074177316521808       16.834651957631966        0.008262549620848
       -0.017894594360068       -0.007010311788173       12.104636666794626
 
Geometry optimization converged after   130 steps.
================
 final structure:
================
$coord
        6.99867712768938       13.72204076977566        9.66188331299337      C
        6.97723778468885        8.85300033542132        3.56698481966979      C
        8.62883395635311        5.26132155622856       12.28963557578892      C
        9.70515158260707        7.63369675140052       12.30627012884610      C
        5.90044901646250        6.48066758080916        3.54963147897612      C
        8.88475988996511        9.43632390441802        1.89182276467665      C
        6.73999224097008        4.68432104020801        1.86084619396345      C
        2.24844576234068       13.14523095250336        1.84345976892772      C
       13.37043679309092        0.96664310672643        1.92429019511472      C
        3.09455279906296       14.90072031375573        3.57142597542457      C
       12.58139579260905       16.03944032258136       12.30771324183503      C
        1.99586910372264        5.32691846838711        9.62046504046629      C
        0.33935105226612        8.93209806117823        6.25320804017423      C
        3.08962492540017        7.69155424565817        9.60478812939379      C
       12.52358111619404        6.44272900268687        6.26494446191241      C
        2.25708365587268        9.49745496469414        7.92283645979141      C
        0.34902877349355       13.77713847521613       12.26378288851434      C
        2.04876385838286       17.28622282682244        3.62036888403790      C
        8.88040151370468       13.09515033688921        7.97332054114013      C
        5.95213535671155       16.10776421942901        9.63015933371353      C
        9.72745852386465       14.86372017893727        6.25919959337833      C
        8.68094770134244       17.24942388931674        6.22715756411282      C
        6.72276329531050        1.04049248503818        7.90548110411645      C
       13.35581572513885        4.63653127171418        7.94691194583706      C
       11.20992430886149        8.07138534828792       11.01002365036552      H
        5.90826554713208        2.90480916952156        7.87346100484707      H
        9.25774909469728        3.87374436419242       10.94372738068562      H
        6.34738928785826       10.24079860894929        4.91245161444198      H
        4.58597762852515       14.42398431266304        4.86901649107927      H
       12.55808362259368        2.83156987750557        1.96799308127678      H
        3.06320354291739       11.28138560577803        1.79828233306419      H
       11.09585571372579       16.52024182081217       11.00431992729870      H
        4.39354904168344        6.04345825904212        4.84366622891380      H
        2.62057901709386        3.93020920146930       10.95913072999868      H
        5.90101755549779        2.83078815687124        1.84124400997991      H
        9.72544003741363       11.28876484895970        1.91293820692937      H
       12.99395387380666       12.29784984629351       10.88287300385930      H
       11.01324191191462        6.01695592388421        4.97120894737816      H
        4.60518044359356        8.11500699350942       10.89326966489724      H
       12.50446483926857        2.78870159061937        7.96478923905991      H
        3.11221080658661       11.34326176517504        7.90178742177318      H
        6.36558251928945       12.35693955781913       11.02886201480367      H
        9.24011849137777        1.77989270160317        4.85212303139550      H
       11.21836929676811       14.39542968831674        4.95771707449400      H
        4.46330976240860       16.57676472647514       10.93393914709070      H
        9.69487399384288       11.23082771145465        8.00445013775834      H
       12.99197116304575       10.20420398733052        4.91018001184346      H
        2.60870006775816        1.80729995409922        4.98790164915568      H
$periodic 3
$lattice bohr
   13.27700260400750   -0.12424295880947   -0.00331920612656
    0.07417731652181   16.83465195763197    0.00826254962085
   -0.01789459436007   -0.00701031178817   12.10463666679463
$end
 
 Bond Distances (Angstroems)
 ---------------------------
C1-C19=1.3784        C1-C20=1.3787        C1-H42=1.0758        C2-C5=1.3787         C2-C6=1.3784         C2-H28=1.0758        
C3-C4=1.3786         C3-H27=1.0757        C4-C3=1.3786         C4-H25=1.0762        C5-C2=1.3787         C5-C7=1.3783         
C5-H33=1.0763        C6-C2=1.3784         C6-H36=1.0766        C7-C5=1.3783         C7-H35=1.0767        C8-C10=1.3783        
C8-H31=1.0767        C9-H30=1.0767        C10-C8=1.3783        C10-C18=1.3786       C10-H29=1.0761       C11-H32=1.0763       
C12-C14=1.3787       C12-H34=1.0758       C13-C16=1.3784       C14-C12=1.3787       C14-C16=1.3782       C14-H39=1.0762       
C15-C24=1.3783       C15-H38=1.0762       C16-C13=1.3784       C16-C14=1.3782       C16-H41=1.0765       C18-C10=1.3786       
C19-C1=1.3784        C19-C21=1.3783       C19-H46=1.0767       C20-C1=1.3787        C20-H45=1.0762       C21-C19=1.3783       
C21-C22=1.3787       C21-H44=1.0762       C22-C21=1.3787       C23-H26=1.0767       C24-C15=1.3783       C24-H40=1.0767       
H25-C4=1.0762        H26-C23=1.0767       H27-C3=1.0757        H28-C2=1.0758        H29-C10=1.0761       H30-C9=1.0767        
H31-C8=1.0767        H32-C11=1.0763       H33-C5=1.0763        H34-C12=1.0758       H35-C7=1.0767        H36-C6=1.0766        
H38-C15=1.0762       H39-C14=1.0762       H40-C24=1.0767       H41-C16=1.0765       H42-C1=1.0758        H44-C21=1.0762       
H45-C20=1.0762       H46-C19=1.0767       
 C  H  Rav=1.0763 sigma=0.0003  Rmin=1.0757  Rmax=1.0767    20
 C  C  Rav=1.3785 sigma=0.0002  Rmin=1.3782  Rmax=1.3787    14
 
 selected bond angles (degree)
 --------------------
C20-C1-C19=120.18              H42-C1-C19=119.95              H42-C1-C20=119.87              C6-C2-C5=120.15                
H28-C2-C5=119.86               H28-C2-C6=119.98               H27-C3-C4=119.87               H25-C4-C3=119.84               
C7-C5-C2=119.94                H33-C5-C2=119.85               H33-C5-C7=120.21               H36-C6-C2=119.99               
H35-C7-C5=120.11               H31-C8-C10=120.14              C18-C10-C8=119.95              H29-C10-C8=120.24              
H29-C10-C18=119.81             
 
 selected dihedral angles (degree)
 ---------------------------------
H25-C4-C3-H27=358.15          C7-C5-C2-C6=  0.27            C7-C5-C2-H28=181.30           H33-C5-C2-C6=180.87           
H33-C5-C2-H28=  1.90          H36-C6-C2-C5=180.16           H36-C6-C2-H28=359.14          H35-C7-C5-C2=180.08           
H35-C7-C5-H33=359.48          C18-C10-C8-H31=179.90         H29-C10-C8-H31=  0.66         
 
 CMA Distance (Angstroems)
 ---------------------------
R(CMA):  3.6006
           -------------------------------------------------
          |                Final Singlepoint                |
           -------------------------------------------------
         :::::::::::::::::::::::::::::::::::::::::::::::::::::
         ::                     SUMMARY                     ::
         :::::::::::::::::::::::::::::::::::::::::::::::::::::
         :: total energy              -9.551599606977 Eh    ::
         :: gradient norm              0.000464995927 Eh/a0 ::
         ::.................................................::
         :: bond energy              -10.051741935010 Eh    ::
         :: angle energy               0.000019089100 Eh    ::
         :: torsion energy             0.000139870365 Eh    ::
         :: repulsion energy           0.678089177155 Eh    ::
         :: electrostat energy        -0.019052917709 Eh    ::
         :: dispersion energy         -0.120928550477 Eh    ::
         :: HB energy                 -0.021719390510 Eh    ::
         :: XB energy                  0.000000000000 Eh    ::
         :: bonded atm energy         -0.016404949892 Eh    ::
         :: external energy            0.000000000000 Eh    ::
         :: add. restraining           0.000000000000 Eh    ::
         :: total charge               0.000000000000 e     ::
         :::::::::::::::::::::::::::::::::::::::::::::::::::::

           -------------------------------------------------
          |                Property Printout                |
           -------------------------------------------------
 Periodic properties
           -------------------------------------------------
          |                Geometry Summary                 |
           -------------------------------------------------

 * 48 atoms in unit cell

     #   Z                                     position/Å        charge
     1   6 C        3.7035408     7.2613919     5.1128489     4.0000000
     2   6 C        3.6921956     4.6848065     1.8875673     4.0000000
     3   6 C        4.5661827     2.7841717     6.5033957     4.0000000
     4   6 C        5.1357455     4.0395787     6.5121983     4.0000000
     5   6 C        3.1223834     3.4294219     1.8783843     4.0000000
     6   6 C        4.7016129     4.9934880     1.0011096     4.0000000
     7   6 C        3.5666506     2.4788362     0.9847175     4.0000000
     8   6 C        1.1898264     6.9561573     0.9755170     4.0000000
     9   6 C        7.0753311     0.5115256     1.0182906     4.0000000
    10   6 C        1.6375670     7.8851223     1.8899174     4.0000000
    11   6 C        6.6577886     8.4877071     6.5129620     4.0000000
    12   6 C        1.0561685     2.8188841     5.0909313     4.0000000
    13   6 C        0.1795769     4.7266632     3.3090555     4.0000000
    14   6 C        1.6349593     4.0701956     5.0826355     4.0000000
    15   6 C        6.6271943     3.4093457     3.3152661     4.0000000
    16   6 C        1.1943973     5.0258372     4.1925849     4.0000000
    17   6 C        0.1846981     7.2905484     6.4897150     4.0000000
    18   6 C        1.0841592     9.1474760     1.9158169     4.0000000
    19   6 C        4.6993065     6.9296558     4.2192999     4.0000000
    20   6 C        3.1497347     8.5238625     5.0960613     4.0000000
    21   6 C        5.1475498     7.8655427     3.3122261     4.0000000
    22   6 C        4.5937601     9.1280029     3.2952702     4.0000000
    23   6 C        3.5575335     0.5506050     4.1834008     4.0000000
    24   6 C        7.0675940     2.4535469     4.2053251     4.0000000
    25   1 H        5.9320370     4.2711936     5.8262541     1.0000000
    26   1 H        3.1265198     1.5371590     4.1664565     1.0000000
    27   1 H        4.8989903     2.0498974     5.7911717     1.0000000
    28   1 H        3.3588941     5.4191977     2.5995577     1.0000000
    29   1 H        2.4267951     7.6328445     2.5765728     1.0000000
    30   1 H        6.6454523     1.4984024     1.0414172     1.0000000
    31   1 H        1.6209777     5.9698527     0.9516101     1.0000000
    32   1 H        5.8716745     8.7421363     5.8232359     1.0000000
    33   1 H        2.3249662     3.1980607     2.5631580     1.0000000
    34   1 H        1.3867508     2.0797773     5.7993228     1.0000000
    35   1 H        3.1226843     1.4979887     0.9743445     1.0000000
    36   1 H        5.1464817     5.9737577     1.0122834     1.0000000
    37   1 H        6.8761049     6.5077425     5.7589689     1.0000000
    38   1 H        5.8279572     3.1840362     2.6306507     1.0000000
    39   1 H        2.4369568     4.2942772     5.7644706     1.0000000
    40   1 H        6.6170784     1.4757175     4.2147853     1.0000000
    41   1 H        1.6469112     6.0025962     4.1814462     1.0000000
    42   1 H        3.3685215     6.5390114     5.8362230     1.0000000
    43   1 H        4.8896606     0.9418787     2.5676332     1.0000000
    44   1 H        5.9365059     7.6177340     2.6235111     1.0000000
    45   1 H        2.3618820     8.7720469     5.7859920     1.0000000
    46   1 H        5.1303069     5.9430986     4.2357730     1.0000000
    47   1 H        6.8750557     5.3998327     2.5983556     1.0000000
    48   1 H        1.3804648     0.9563820     2.6394841     1.0000000

 * 3D periodic system

 * cell parameter

      |a|/Å         |b|/Å         |c|/Å        α/°      β/°      γ/°
    7.0261957     8.9086025     6.4055065    90.005   90.099   90.284

 * direct lattice/Å

            a     7.0258879    -0.0657465    -0.0017564
            b     0.0392529     8.9085150     0.0043724
            c    -0.0094694    -0.0037097     6.4054985

 * reciprocal lattice/Å⁻¹

           a*     0.8942540    -0.0039409     0.0013197
           b*     0.0065999     0.7052718     0.0004182
           c*     0.0002407    -0.0004825     0.9809051

 * geometry in fractional coordinates

     #   Z                         fractional coordinates
     1   6 C        0.5116400     0.7881200     0.7654500
     2   6 C        0.5119200     0.4942800     0.2628400
     3   6 C        0.6192200     0.2896600     0.9837300
     4   6 C        0.7017100     0.4247000     0.9843700
     5   6 C        0.4294000     0.3592500     0.2621700
     6   6 C        0.6478500     0.5270100     0.1241400
     7   6 C        0.4832700     0.2569400     0.1224100
     8   6 C        0.1450700     0.7586900     0.1222400
     9   6 C        0.9806700     0.0288300     0.1242300
    10   6 C        0.1989600     0.8608900     0.2621500
    11   6 C        0.9268000     0.9266400     0.9842800
    12   6 C        0.1166300     0.2898300     0.7655300
    13   6 C        0.0091500     0.4942500     0.4862200
    14   6 C        0.1991100     0.4248800     0.7646700
    15   6 C        0.9266700     0.3592000     0.4870900
    16   6 C        0.1451400     0.5270800     0.6248000
    17   6 C        0.0091900     0.7915600     0.9835300
    18   6 C        0.1165400     0.9959600     0.2629500
    19   6 C        0.6476000     0.7552300     0.6268600
    20   6 C        0.4292700     0.9232100     0.7646200
    21   6 C        0.7016000     0.8574100     0.4869700
    22   6 C        0.6192200     0.9925000     0.4861200
    23   6 C        0.4832500     0.0253900     0.6247100
    24   6 C        0.9806300     0.2570000     0.6269600
    25   1 H        0.8084000     0.4493700     0.8756300
    26   1 H        0.4172400     0.1306900     0.6231100
    27   1 H        0.6579800     0.2098500     0.8725800
    28   1 H        0.4731900     0.5740800     0.3740300
    29   1 H        0.3056200     0.8361400     0.3709000
    30   1 H        0.9146300     0.1341200     0.1257700
    31   1 H        0.2111300     0.6534100     0.1206800
    32   1 H        0.8201300     0.9513800     0.8755500
    33   1 H        0.3227300     0.3345800     0.3709300
    34   1 H        0.1554200     0.2101200     0.8768100
    35   1 H        0.4171400     0.1516900     0.1209500
    36   1 H        0.7139700     0.6322600     0.1255800
    37   1 H        0.9704200     0.7118300     0.8722500
    38   1 H        0.8199700     0.3344600     0.3784000
    39   1 H        0.3058400     0.4496100     0.8733400
    40   1 H        0.9145100     0.1517500     0.6285600
    41   1 H        0.2112500     0.6323400     0.6231700
    42   1 H        0.4727800     0.7084100     0.8767200
    43   1 H        0.6581000     0.0722100     0.3748700
    44   1 H        0.8082900     0.8326400     0.3782900
    45   1 H        0.3225000     0.9479600     0.8732400
    46   1 H        0.7136600     0.6499500     0.6284700
    47   1 H        0.9703300     0.5739700     0.3749600
    48   1 H        0.1552900     0.0756800     0.3742500

 * volume of direct unit cell/Å³ =   400.9381049

 * mass density of direct unit cell/g·cm⁻³ =     1.2940464


optimized geometry written to: xtbopt.coord


           -------------------------------------------------
          | TOTAL ENERGY               -9.551599606977 Eh   |
          | GRADIENT NORM               0.000464995927 Eh/α |
           -------------------------------------------------

------------------------------------------------------------------------
 * finished run on 2024/11/26 at 21:02:46.668     
------------------------------------------------------------------------
 total:
 * wall-time:     0 d,  0 h,  0 min, 26.240 sec
 *  cpu-time:     0 d,  0 h,  8 min, 42.052 sec
 * ratio c/w:    19.895 speedup
 SCF:
 * wall-time:     0 d,  0 h,  0 min,  0.193 sec
 *  cpu-time:     0 d,  0 h,  0 min,  3.764 sec
 * ratio c/w:    19.477 speedup
 ANC optimizer:
 * wall-time:     0 d,  0 h,  0 min, 25.896 sec
 *  cpu-time:     0 d,  0 h,  8 min, 36.054 sec
 * ratio c/w:    19.928 speedup

