
     Program PWSCF v.7.5 starts on 24Oct2025 at 16:17:27 
        Git branch: develop
        Last git commit: 41de32dbdb0942acb75a8fa2409ce4953be06473
        Last git commit date: Tue Sep 30 17:36:47 2025 +0000
        Last git commit subject: Merge branch 'elf' into 'develop'

     This program is part of the open-source Quantum ESPRESSO suite
     for quantum simulation of materials; please cite
         "P. Giannozzi et al., J. Phys.:Condens. Matter 21 395502 (2009);
         "P. Giannozzi et al., J. Phys.:Condens. Matter 29 465901 (2017);
         "P. Giannozzi et al., J. Chem. Phys. 152 154105 (2020);
          URL http://www.quantum-espresso.org", 
     in publications or presentations arising from this work. More details at
     http://www.quantum-espresso.org/quote

     Parallel version (MPI), running on     4 processors

     MPI processes distributed on     1 nodes
     13782 MiB available memory on the printing compute node when the environment starts

     Reading input from espresso.pwi
Warning: card &IONS ignored
Warning: card &CELL ignored
Warning: card &FCP ignored
Warning: card &RISM ignored

     Current dimensions of program PWSCF are:
     Max number of different atomic species (ntypx) = 10
     Max number of k-points (npk) =  40000
     Max angular momentum in pseudopotentials (lmaxx) =  4

     Atomic positions and unit cell read from directory:
     ./tmp/copper.save/

     Found identity + (  0.0000 -0.5000 -0.5000) symmetry
     This is a supercell, fractional translations are disabled
     Message from routine setup:
     using ibrav=0 with symmetry is DISCOURAGED, use correct ibrav instead

     R & G space division:  proc/nbgrp/npool/nimage =       4
     Subspace diagonalization in iterative solution of the eigenvalue problem:
     a serial algorithm will be used


     Parallelization info
     --------------------
     sticks:   dense  smooth     PW     G-vecs:    dense   smooth      PW
     Min         370     370    109                10732    10732    1690
     Max         371     371    110                10735    10735    1691
     Sum        1481    1481    437                42931    42931    6763

     Using Slab Decomposition



     bravais-lattice index     =            0
     lattice parameter (alat)  =       6.8219  a.u.
     unit-cell volume          =     317.4813 (a.u.)^3
     number of atoms/cell      =            4
     number of atomic types    =            1
     number of electrons       =        76.00
     number of Kohn-Sham states=           92
     kinetic-energy cutoff     =     100.0000  Ry
     charge density cutoff     =     400.0000  Ry
     Exchange-correlation= PBE
                           (   1   4   3   4   0   0   0)
     Non magnetic calculation with spin-orbit


     celldm(1)=   6.821911  celldm(2)=   0.000000  celldm(3)=   0.000000
     celldm(4)=   0.000000  celldm(5)=   0.000000  celldm(6)=   0.000000

     crystal axes: (cart. coord. in units of alat)
               a(1) = (   1.000000   0.000000   0.000000 )  
               a(2) = (   0.000000   1.000000   0.000000 )  
               a(3) = (   0.000000   0.000000   1.000000 )  

     reciprocal axes: (cart. coord. in units 2 pi/alat)
               b(1) = (  1.000000  0.000000  0.000000 )  
               b(2) = (  0.000000  1.000000  0.000000 )  
               b(3) = (  0.000000  0.000000  1.000000 )  


     PseudoPot. # 1 for Cu read from file:
     ./Cu_r.upf
     MD5 check sum: 4cb9fe66fc25bd54f2aa8c9777a8800c
     Pseudo is Norm-conserving + core correction, Zval = 19.0
     Generated using ONCVPSP code by D. R. Hamann
     Using radial grid of 1492 points, 10 beta functions with: 
                l(1) =   0
                l(2) =   0
                l(3) =   1
                l(4) =   1
                l(5) =   1
                l(6) =   1
                l(7) =   2
                l(8) =   2
                l(9) =   2
               l(10) =   2

     atomic species   valence    mass     pseudopotential
     Cu               19.00    63.54600     Cu( 1.00)

     48 Sym. Ops., with inversion, found



   Cartesian axes

     site n.     atom                  positions (alat units)
         1        Cu     tau(   1) = (   0.0000000   0.0000000   0.0000000  )
         2        Cu     tau(   2) = (   0.0000000   0.5000000   0.5000000  )
         3        Cu     tau(   3) = (   0.5000000   0.0000000   0.5000000  )
         4        Cu     tau(   4) = (   0.5000000   0.5000000   0.0000000  )

     number of k points=   165  Gaussian smearing, width (Ry)=  0.0100

     Number of k-points >= 100: set verbosity='high' to print them.

     Dense  grid:    42931 G-vectors     FFT dimensions: (  45,  45,  45)

     Estimated max dynamical RAM per process >      34.59 MB

     Estimated total dynamical RAM >     138.36 MB

     The potential is recalculated from file :
     ./tmp/copper.save/charge-density

     Starting wfcs are   80 randomized atomic wfcs +   12 random wfcs

     Band Structure Calculation
     Davidson diagonalization with overlap

     ethr =  1.32E-13,  avg # of iterations = 30.2

     total cpu time spent up to now is      261.6 secs

     End of band structure calculation

     Number of k-points >= 100: set verbosity='high' to print the bands.

     the Fermi energy is    17.5402 ev
     (compare with:    17.4927 eV, computed in scf)

     Writing all to output data dir ./tmp/copper.save/ :
     XML data file, pseudopotentials, collected wavefunctions

     init_run     :      0.07s CPU      0.08s WALL (       1 calls)
     electrons    :    252.57s CPU    261.44s WALL (       1 calls)

     Called by init_run:
     wfcinit      :      0.00s CPU      0.00s WALL (       1 calls)
     potinit      :      0.00s CPU      0.01s WALL (       1 calls)
     hinit0       :      0.03s CPU      0.03s WALL (       1 calls)

     Called by electrons:
     c_bands      :    252.57s CPU    261.44s WALL (       1 calls)
     v_of_rho     :      0.00s CPU      0.01s WALL (       1 calls)

     Called by c_bands:
     init_us_2    :      0.05s CPU      0.11s WALL (     165 calls)
     cegterg      :    238.78s CPU    246.50s WALL (     323 calls)

     Called by *egterg:
     cdiaghg      :     19.25s CPU     19.36s WALL (    5142 calls)
     h_psi        :    154.44s CPU    162.13s WALL (    5465 calls)
     g_psi        :      1.06s CPU      1.07s WALL (    4977 calls)

     Called by h_psi:
     h_psi:calbec :     11.83s CPU     12.25s WALL (    5465 calls)
     vloc_psi     :    127.61s CPU    134.47s WALL (    5465 calls)
                                        0.00s GPU  (    5465 calls)
     add_vuspsi   :     13.50s CPU     13.56s WALL (    5465 calls)

     General routines
     calbec       :     11.82s CPU     12.24s WALL (    5465 calls)
     fft          :      0.00s CPU      0.00s WALL (      14 calls)
     fftw         :    117.65s CPU    123.94s WALL (  979852 calls)
     davcio       :      0.15s CPU      0.32s WALL (     330 calls)

     Parallel routines

     PWSCF        :   4m13.19s CPU   4m23.42s WALL


   This run was terminated on:  16:21:50  24Oct2025            

=------------------------------------------------------------------------------=
   JOB DONE.
=------------------------------------------------------------------------------=
