Quantum Capacitance Results - Per Unit Cell
==========================================
Fermi level: 17.540200 eV
DOS at E_F: 1.153000 states/eV/cell
Quantum Capacitance: 1.847310e-19 F/cell
