

 Parallel Execution: Process Information
 ==============================================================================
 Rank   Node Name                              NodeID   MyNodeRank  NodeMaster
    0   adf1                                      0          0          0
    1   adf1                                      0          1         -1
    2   adf1                                      0          2         -1
    3   adf1                                      0          3         -1
    4   adf1                                      0          4         -1
    5   adf1                                      0          5         -1
    6   adf1                                      0          6         -1
    7   adf1                                      0          7         -1
    8   adf1                                      0          8         -1
    9   adf1                                      0          9         -1
   10   adf1                                      0         10         -1
   11   adf1                                      0         11         -1
 ==============================================================================


May use up to 22932MB of RAM as shared memory on node 0

 *******************************************************************************
 *                                                                             *
 *  --------------------------------                                           *
 *   Amsterdam Modeling Suite (AMS)              2020.202                      *
 *  --------------------------------                                           *
 *                                               r90167 2020-12-05             *
 *                                                                             *
 *                                                                             *
 *                              =================                              *
 *                              |               |                              *
 *                              |     A M S     |                              *
 *                              |               |                              *
 *                              =================                              *
 *                                                                             *
 *                                                                             *
 *   Online information and documentation:  https://www.scm.com/support/       *
 *   E-mail:  support@scm.com   info@scm.com                                   *
 *                                                                             *
 *   Scientific publications using AMS results must be properly referenced     *
 *   See the User Manuals (or the web site) for recommended citations          *
 *   The terms and conditions of the End User License Agreement apply to       *
 *   the use of AMS, https://www.scm.com/license-terms/                        *
 *                                                                             *
 **********************  x86_64_linux_intel / intelmpi  ************************
 
 Licensed to: Dr. Miroslav Ilias / Matej Bel University, Department Chemistry, Fac. Natural Sciences / Banska Bystrica / SLOVAKIA
 SCM User ID: u17848
  
 AMS 2020.202  RunTime: Jan14-2021 11:14:03  Nodes: 1  Procs: 12

 AMS jobname: ams
 AMS jobid  : 2033243208

 Start   directory: /home/milias/Work/projects/open-collection/theoretical_chemistry/projects/nmr_diplomovky/reference_compounds/nitromethane/ams/nmr_shield/tmp.milias.7967.0.noindex/
 Results directory: /home/milias/Work/projects/open-collection/theoretical_chemistry/projects/nmr_diplomovky/reference_compounds/nitromethane/ams/nmr_shield/nitromethane.nmr_blyp_tz2p.results/
 Scratch directory: /tmp/amstmp_ams_kid0.2033243208/


 Communication costs MPI_COMM_WORLD:      2.761 usec per message,   0.0272 usec per 8-byte item
 Communication costs for intra-node:      2.696 usec per message,   0.0270 usec per 8-byte item

 RNG seed: 1047901131 1883495679 950667697 -1823997791 173129977 -881261462 209248455 -1340880294



                       *********************************************************************
                       *  ADF 2020.202  RunTime: Jan14-2021 11:14:04  Nodes: 1  Procs: 12  *
                       *********************************************************************
  
       ****************************
       * SINGLE POINT CALCULATION *
       ****************************
 
--------
Geometry
--------
Atoms
  Index Symbol   x (angstrom)   y (angstrom)   z (angstrom)
      1      C    -1.06114703     0.22157301     0.01455853
      2      N     0.45599388     0.15096527     0.00867068
      3      O     1.07134394     1.22830238    -0.00235278
      4      O     0.97012302    -0.97799475    -0.01299107
      5      H    -1.35320552     1.14775907     0.51026835
      6      H    -1.43804518    -0.67025808     0.51584701
      7      H    -1.37441504     0.23251561    -1.03400072
 
Total System Charge             0.00000
Bonding info available!
 
 
----------------
ADF Engine Input
----------------
 
 Basis
 Type TZ2P
 Core None
 End
 Save TAPE10
 XC
 GGA BLYP
 End
 Relativity
 Level None
 End
 

 Title: *** (NO TITLE) ***

 *** adf ***



 ===========================
 A T T A C H E D   F I L E S
 ===========================
  



 ===============================
 M O D E L   P A R A M E T E R S
 ===============================
  
 DENSITY FUNCTIONAL POTENTIAL (scf)
    LDA:                               Exchange only                           == Not Default ==
    Gradient Corrections:              Becke88 LYP                             == Not Default ==

 SPIN  (restricted / unrestr.)
    Molecule:                          Restricted                               
    Fragments:                         Restricted                               

 OTHER ASPECTS
    Relativistic Corrections:          ---                                     == Not Default ==

    Nuclear Charge Density Model:      Point Charge Nuclei                      
    Core Treatment:                    Frozen Orbital(s)                        

    Hyperfine or Zeeman Interaction:   ---                                      


 Fragment File(s)
 ----------------
 C:
         file : /home/milias/Work/projects/open-collection/theoretical_chemistry/projects/nmr_diplomovky/reference_compounds/nitromethane/ams/nmr_shield/nitromethane.nmr_blyp_tz2p.results/t21.312447F9.C
         jobid: 0
         title: Carbon (TZ2P)
 N:
         file : /home/milias/Work/projects/open-collection/theoretical_chemistry/projects/nmr_diplomovky/reference_compounds/nitromethane/ams/nmr_shield/nitromethane.nmr_blyp_tz2p.results/t21.7A0C499D.N
         jobid: 0
         title: Nitrogen (TZ2P)
 O:
         file : /home/milias/Work/projects/open-collection/theoretical_chemistry/projects/nmr_diplomovky/reference_compounds/nitromethane/ams/nmr_shield/nitromethane.nmr_blyp_tz2p.results/t21.574EBD56.O
         jobid: 0
         title: Oxygen (TZ2P)
 H:
         file : /home/milias/Work/projects/open-collection/theoretical_chemistry/projects/nmr_diplomovky/reference_compounds/nitromethane/ams/nmr_shield/nitromethane.nmr_blyp_tz2p.results/t21.5FDAA83B.H
         jobid: 0
         title: Hydrogen (TZ2P)



 ===============
 G E O M E T R Y  ***  3D  Molecule  ***
 ===============
  

 ATOMS
 =====                            X Y Z                    CHARGE
                                (Angstrom)             Nucl     +Core       At.Mass
                       --------------------------    ----------------       -------
    1  C              -1.0611    0.2216    0.0146      6.00      6.00       12.0000
    2  N               0.4560    0.1510    0.0087      7.00      7.00       14.0031
    3  O               1.0713    1.2283   -0.0024      8.00      8.00       15.9949
    4  O               0.9701   -0.9780   -0.0130      8.00      8.00       15.9949
    5  H              -1.3532    1.1478    0.5103      1.00      1.00        1.0078
    6  H              -1.4380   -0.6703    0.5158      1.00      1.00        1.0078
    7  H              -1.3744    0.2325   -1.0340      1.00      1.00        1.0078


 FRAGMENTS
 =========                                     Atoms in this Fragment     Cart. coord.s (Angstrom)
                                               -------------------------------------------------------
    1  C                                                 1  C           -1.0611    0.2216    0.0146
    2  N                                                 2  N            0.4560    0.1510    0.0087
    3  O                                                 3  O            1.0713    1.2283   -0.0024
    4  O                                                 4  O            0.9701   -0.9780   -0.0130
    5  H                                                 5  H           -1.3532    1.1478    0.5103
    6  H                                                 6  H           -1.4380   -0.6703    0.5158
    7  H                                                 7  H           -1.3744    0.2325   -1.0340


 Interatomic Distance Matrix (Angstrom)
 --------------------------------------

   1)     0.000
   2)     1.519   0.000
   3)     2.358   1.241   0.000
   4)     2.359   1.241   2.209   0.000
   5)     1.090   2.126   2.479   3.192   0.000
   6)     1.090   2.126   3.189   2.485   1.820   0.000
   7)     1.094   2.108   2.835   2.829   1.795   1.795   0.000

 Min. Distance =    1.0903
 Max. Distance =    3.1923



 =====================================
 S Y M M E T R Y ,   E L E C T R O N S
 =====================================
  
 Symmetry: NOSYM

 Irreducible Representations, including subspecies
 -------------------------------------------------
 A


 Configuration of Valence Electrons
 ==================================
 ( determined in the SCF procedure )

 Total:   32

 Net Charge: 0 (Nuclei minus Electrons)

 Aufbau principle for MO occupations will be applied through SCF cycle no.     150
 Thereafter, the program will assign electrons to MOs that are spatially
 similar to the occupied MOs in a "reference" cycle ("KeepOrbitals").
 The reference cycle is always the PREVIOUS cycle: it will evolve with
 the SCF procedure.
1
 ***************************************************************************************************



                                      ****************************************
                                      *  B U I L D : (Fragments, Functions)  *
                                      ****************************************
  



 =======
 S F O s  ***  (Symmetrized Fragment Orbitals)  ***
 =======
  
 SFOs are linear combinations of (valence) Fragment Orbitals (FOs), such that the SFOs transform as the
 irreducible representations of the (molecular) symmetry group. Each SFO is therefore characterized by
 an irrep of the molecule and by a few (or only one) generating FOs.
 The SFOs constitute a symmetry-adapted basis for the Fock matrix. The MO eigenvector coefficients in
 this basis provide a direct interpretation of the MOs in terms of Frontier Orbital Theory.

 The SFOs are combined with auxiliary Core Functions (CFs) to ensure orthogonalization on the (frozen)
 Core Orbitals (COs). The Core-orthogonalized SFOs (CSFOs) constitute the true Fock basis.

 The FOs, and hence also the (C)SFOs are combinations of the elementary basis functions (BAS). The basis
 functions that participate in the description of the SFOs depend on the irrep. The indices of the
 involved functions are printed below for each irrep.
 (The complete list of primitive basis functions is printed in another section)

 Total nr. of (C)SFOs (summation over all irreps) :   137

 NOTE: a (C)SFO that is defined as a combination of more than one FO is usually NOT normalized.



                                       === A ===
 Nr. of SFOs :  137
 Cartesian basis functions that participate in this irrep (total number =   156) :
      1     2     3     4     5     6     9    12     7    10
     13     8    11    14    15    16    17    18    19    20
     21    22    23    24    25    26    27    28    29    30
     31    32    33    34    35    36    39    42    37    40
     43    38    41    44    45    46    47    48    49    50
     51    52    53    54    55    56    57    58    59    60
     61    62    63    64    65    66    69    72    67    70
     73    68    71    74    75    76    77    78    79    80
     81    82    83    84    85    86    87    88    89    90
     91    92    93    94    95    96    99   102    97   100
    103    98   101   104   105   106   107   108   109   110
    111   112   113   114   115   116   117   118   119   120
    121   122   123   124   125   126   127   128   129   130
    131   132   133   134   135   136   137   138   139   140
    141   142   143   144   145   146   147   148   149   150
    151   152   153   154   155   156

    SFO  (index         Fragment          Generating    Expansion in Fragment Orbitals
  indx  incl.CFs)   Occup   Orb.Energy   FragmentType  Coeff.   Orbital     on Fragment
 --------------------------------------------------------------------------------------
     1       1      2.000     -10.063 au  C             1.00      1 S               1
                        (    -273.823 eV)
     2       2      2.000      -0.500 au  C             1.00      2 S               1
                        (     -13.609 eV)
     3       3       --         0.374 au  C             1.00      3 S               1
                        (      10.173 eV)
     4       4       --         5.411 au  C             1.00      4 S               1
                        (     147.253 eV)
     5       5       --        50.155 au  C             1.00      5 S               1
                        (    1364.777 eV)
     6       6      0.667      -0.193 au  C             1.00      1 P:x             1
                        (      -5.243 eV)
     7       7       --         0.169 au  C             1.00      2 P:x             1
                        (       4.588 eV)
     8       8       --         2.015 au  C             1.00      3 P:x             1
                        (      54.822 eV)
     9       9      0.667      -0.193 au  C             1.00      1 P:y             1
                        (      -5.243 eV)
    10      10       --         0.169 au  C             1.00      2 P:y             1
                        (       4.588 eV)
    11      11       --         2.015 au  C             1.00      3 P:y             1
                        (      54.822 eV)
    12      12      0.667      -0.193 au  C             1.00      1 P:z             1
                        (      -5.243 eV)
    13      13       --         0.169 au  C             1.00      2 P:z             1
                        (       4.588 eV)
    14      14       --         2.015 au  C             1.00      3 P:z             1
                        (      54.822 eV)
    15      15       --         1.243 au  C             1.00      1 D:z2            1
                        (      33.823 eV)
    16      16       --         1.243 au  C             1.00      1 D:x2-y2         1
                        (      33.823 eV)
    17      17       --         1.243 au  C             1.00      1 D:xy            1
                        (      33.823 eV)
    18      18       --         1.243 au  C             1.00      1 D:xz            1
                        (      33.823 eV)
    19      19       --         1.243 au  C             1.00      1 D:yz            1
                        (      33.823 eV)
    20      20       --         4.016 au  C             1.00      1 F:z3            1
                        (     109.288 eV)
    21      21       --         4.016 au  C             1.00      1 F:z             1
                        (     109.288 eV)
    22      22       --         4.016 au  C             1.00      1 F:xyz           1
                        (     109.288 eV)
    23      23       --         4.016 au  C             1.00      1 F:z2x           1
                        (     109.288 eV)
    24      24       --         4.016 au  C             1.00      1 F:z2y           1
                        (     109.288 eV)
    25      25       --         4.016 au  C             1.00      1 F:x             1
                        (     109.288 eV)
    26      26       --         4.016 au  C             1.00      1 F:y             1
                        (     109.288 eV)
    27      27      2.000     -14.153 au  N             1.00      1 S               2
                        (    -385.118 eV)
    28      28      2.000      -0.677 au  N             1.00      2 S               2
                        (     -18.426 eV)
    29      29       --         0.518 au  N             1.00      3 S               2
                        (      14.102 eV)
    30      30       --         6.883 au  N             1.00      4 S               2
                        (     187.301 eV)
    31      31       --        63.954 au  N             1.00      5 S               2
                        (    1740.284 eV)
    32      32      1.000      -0.260 au  N             1.00      1 P:x             2
                        (      -7.067 eV)
    33      33       --         0.281 au  N             1.00      2 P:x             2
                        (       7.648 eV)
    34      34       --         3.278 au  N             1.00      3 P:x             2
                        (      89.195 eV)
    35      35      1.000      -0.260 au  N             1.00      1 P:y             2
                        (      -7.067 eV)
    36      36       --         0.281 au  N             1.00      2 P:y             2
                        (       7.648 eV)
    37      37       --         3.278 au  N             1.00      3 P:y             2
                        (      89.195 eV)
    38      38      1.000      -0.260 au  N             1.00      1 P:z             2
                        (      -7.067 eV)
    39      39       --         0.281 au  N             1.00      2 P:z             2
                        (       7.648 eV)
    40      40       --         3.278 au  N             1.00      3 P:z             2
                        (      89.195 eV)
    41      41       --         1.250 au  N             1.00      1 D:z2            2
                        (      34.002 eV)
    42      42       --         1.250 au  N             1.00      1 D:x2-y2         2
                        (      34.002 eV)
    43      43       --         1.250 au  N             1.00      1 D:xy            2
                        (      34.002 eV)
    44      44       --         1.250 au  N             1.00      1 D:xz            2
                        (      34.002 eV)
    45      45       --         1.250 au  N             1.00      1 D:yz            2
                        (      34.002 eV)
    46      46       --         4.013 au  N             1.00      1 F:z3            2
                        (     109.204 eV)
    47      47       --         4.013 au  N             1.00      1 F:z             2
                        (     109.204 eV)
    48      48       --         4.013 au  N             1.00      1 F:xyz           2
                        (     109.204 eV)
    49      49       --         4.013 au  N             1.00      1 F:z2x           2
                        (     109.204 eV)
    50      50       --         4.013 au  N             1.00      1 F:z2y           2
                        (     109.204 eV)
    51      51       --         4.013 au  N             1.00      1 F:x             2
                        (     109.204 eV)
    52      52       --         4.013 au  N             1.00      1 F:y             2
                        (     109.204 eV)
    53      53      2.000     -18.927 au  O             1.00      1 S               3
                        (    -515.020 eV)
    54      54      2.000      -0.874 au  O             1.00      2 S               3
                        (     -23.792 eV)
    55      55       --         0.793 au  O             1.00      3 S               3
                        (      21.588 eV)
    56      56       --        13.460 au  O             1.00      4 S               3
                        (     366.259 eV)
    57      57       --       123.108 au  O             1.00      5 S               3
                        (    3349.933 eV)
    58      58      1.333      -0.332 au  O             1.00      1 P:x             3
                        (      -9.028 eV)
    59      59       --         0.347 au  O             1.00      2 P:x             3
                        (       9.435 eV)
    60      60       --         3.825 au  O             1.00      3 P:x             3
                        (     104.075 eV)
    61      61      1.333      -0.332 au  O             1.00      1 P:y             3
                        (      -9.028 eV)
    62      62       --         0.347 au  O             1.00      2 P:y             3
                        (       9.435 eV)
    63      63       --         3.825 au  O             1.00      3 P:y             3
                        (     104.075 eV)
    64      64      1.333      -0.332 au  O             1.00      1 P:z             3
                        (      -9.028 eV)
    65      65       --         0.347 au  O             1.00      2 P:z             3
                        (       9.435 eV)
    66      66       --         3.825 au  O             1.00      3 P:z             3
                        (     104.075 eV)
    67      67       --         1.070 au  O             1.00      1 D:z2            3
                        (      29.129 eV)
    68      68       --         1.070 au  O             1.00      1 D:x2-y2         3
                        (      29.129 eV)
    69      69       --         1.070 au  O             1.00      1 D:xy            3
                        (      29.129 eV)
    70      70       --         1.070 au  O             1.00      1 D:xz            3
                        (      29.129 eV)
    71      71       --         1.070 au  O             1.00      1 D:yz            3
                        (      29.129 eV)
    72      72       --         3.359 au  O             1.00      1 F:z3            3
                        (      91.415 eV)
    73      73       --         3.359 au  O             1.00      1 F:z             3
                        (      91.415 eV)
    74      74       --         3.359 au  O             1.00      1 F:xyz           3
                        (      91.415 eV)
    75      75       --         3.359 au  O             1.00      1 F:z2x           3
                        (      91.415 eV)
    76      76       --         3.359 au  O             1.00      1 F:z2y           3
                        (      91.415 eV)
    77      77       --         3.359 au  O             1.00      1 F:x             3
                        (      91.415 eV)
    78      78       --         3.359 au  O             1.00      1 F:y             3
                        (      91.415 eV)
    79      79      2.000     -18.927 au  O             1.00      1 S               4
                        (    -515.020 eV)
    80      80      2.000      -0.874 au  O             1.00      2 S               4
                        (     -23.792 eV)
    81      81       --         0.793 au  O             1.00      3 S               4
                        (      21.588 eV)
    82      82       --        13.460 au  O             1.00      4 S               4
                        (     366.259 eV)
    83      83       --       123.108 au  O             1.00      5 S               4
                        (    3349.933 eV)
    84      84      1.333      -0.332 au  O             1.00      1 P:x             4
                        (      -9.028 eV)
    85      85       --         0.347 au  O             1.00      2 P:x             4
                        (       9.435 eV)
    86      86       --         3.825 au  O             1.00      3 P:x             4
                        (     104.075 eV)
    87      87      1.333      -0.332 au  O             1.00      1 P:y             4
                        (      -9.028 eV)
    88      88       --         0.347 au  O             1.00      2 P:y             4
                        (       9.435 eV)
    89      89       --         3.825 au  O             1.00      3 P:y             4
                        (     104.075 eV)
    90      90      1.333      -0.332 au  O             1.00      1 P:z             4
                        (      -9.028 eV)
    91      91       --         0.347 au  O             1.00      2 P:z             4
                        (       9.435 eV)
    92      92       --         3.825 au  O             1.00      3 P:z             4
                        (     104.075 eV)
    93      93       --         1.070 au  O             1.00      1 D:z2            4
                        (      29.129 eV)
    94      94       --         1.070 au  O             1.00      1 D:x2-y2         4
                        (      29.129 eV)
    95      95       --         1.070 au  O             1.00      1 D:xy            4
                        (      29.129 eV)
    96      96       --         1.070 au  O             1.00      1 D:xz            4
                        (      29.129 eV)
    97      97       --         1.070 au  O             1.00      1 D:yz            4
                        (      29.129 eV)
    98      98       --         3.359 au  O             1.00      1 F:z3            4
                        (      91.415 eV)
    99      99       --         3.359 au  O             1.00      1 F:z             4
                        (      91.415 eV)
   100     100       --         3.359 au  O             1.00      1 F:xyz           4
                        (      91.415 eV)
   101     101       --         3.359 au  O             1.00      1 F:z2x           4
                        (      91.415 eV)
   102     102       --         3.359 au  O             1.00      1 F:z2y           4
                        (      91.415 eV)
   103     103       --         3.359 au  O             1.00      1 F:x             4
                        (      91.415 eV)
   104     104       --         3.359 au  O             1.00      1 F:y             4
                        (      91.415 eV)
   105     105      1.000      -0.240 au  H             1.00      1 S               5
                        (      -6.532 eV)
   106     106       --         0.088 au  H             1.00      2 S               5
                        (       2.394 eV)
   107     107       --         1.502 au  H             1.00      3 S               5
                        (      40.877 eV)
   108     108       --         0.406 au  H             1.00      1 P:x             5
                        (      11.052 eV)
   109     109       --         0.406 au  H             1.00      1 P:y             5
                        (      11.052 eV)
   110     110       --         0.406 au  H             1.00      1 P:z             5
                        (      11.052 eV)
   111     111       --         2.570 au  H             1.00      1 D:z2            5
                        (      69.925 eV)
   112     112       --         2.570 au  H             1.00      1 D:x2-y2         5
                        (      69.925 eV)
   113     113       --         2.570 au  H             1.00      1 D:xy            5
                        (      69.925 eV)
   114     114       --         2.570 au  H             1.00      1 D:xz            5
                        (      69.925 eV)
   115     115       --         2.570 au  H             1.00      1 D:yz            5
                        (      69.925 eV)
   116     116      1.000      -0.240 au  H             1.00      1 S               6
                        (      -6.532 eV)
   117     117       --         0.088 au  H             1.00      2 S               6
                        (       2.394 eV)
   118     118       --         1.502 au  H             1.00      3 S               6
                        (      40.877 eV)
   119     119       --         0.406 au  H             1.00      1 P:x             6
                        (      11.052 eV)
   120     120       --         0.406 au  H             1.00      1 P:y             6
                        (      11.052 eV)
   121     121       --         0.406 au  H             1.00      1 P:z             6
                        (      11.052 eV)
   122     122       --         2.570 au  H             1.00      1 D:z2            6
                        (      69.925 eV)
   123     123       --         2.570 au  H             1.00      1 D:x2-y2         6
                        (      69.925 eV)
   124     124       --         2.570 au  H             1.00      1 D:xy            6
                        (      69.925 eV)
   125     125       --         2.570 au  H             1.00      1 D:xz            6
                        (      69.925 eV)
   126     126       --         2.570 au  H             1.00      1 D:yz            6
                        (      69.925 eV)
   127     127      1.000      -0.240 au  H             1.00      1 S               7
                        (      -6.532 eV)
   128     128       --         0.088 au  H             1.00      2 S               7
                        (       2.394 eV)
   129     129       --         1.502 au  H             1.00      3 S               7
                        (      40.877 eV)
   130     130       --         0.406 au  H             1.00      1 P:x             7
                        (      11.052 eV)
   131     131       --         0.406 au  H             1.00      1 P:y             7
                        (      11.052 eV)
   132     132       --         0.406 au  H             1.00      1 P:z             7
                        (      11.052 eV)
   133     133       --         2.570 au  H             1.00      1 D:z2            7
                        (      69.925 eV)
   134     134       --         2.570 au  H             1.00      1 D:x2-y2         7
                        (      69.925 eV)
   135     135       --         2.570 au  H             1.00      1 D:xy            7
                        (      69.925 eV)
   136     136       --         2.570 au  H             1.00      1 D:xz            7
                        (      69.925 eV)
   137     137       --         2.570 au  H             1.00      1 D:yz            7
                        (      69.925 eV)



 ================================
 (Slater-type)  F U N C T I O N S  ***  (Basis and Fit)  ***
 ================================
  

 Atom Type    1  (C)
 ==============

 Valence Basis Sets:  10
 -----------------------
   1 S    7.680000
   1 S    5.000000
   2 S    1.280000
   2 S    2.100000
   2 S    4.600000
   2 P    0.820000
   2 P    1.480000
   2 P    2.940000
   3 D    2.200000
   4 F    3.300000

 Atom Type    2  (N)
 ==============

 Valence Basis Sets:  10
 -----------------------
   1 S    8.740000
   1 S    5.900000
   2 S    5.150000
   2 S    2.500000
   2 S    1.500000
   2 P    3.680000
   2 P    1.880000
   2 P    1.000000
   3 D    2.200000
   4 F    3.300000

 Atom Type    3  (O)
 ==============

 Valence Basis Sets:  10
 -----------------------
   1 S    9.800000
   1 S    6.800000
   2 S    7.580000
   2 S    2.880000
   2 S    1.720000
   2 P    4.080000
   2 P    2.080000
   2 P    1.120000
   3 D    2.000000
   4 F    3.000000

 Atom Type    4  (H)
 ==============

 Valence Basis Sets:   5
 -----------------------
   1 S    0.690000
   1 S    0.920000
   1 S    1.580000
   2 P    1.250000
   3 D    2.500000


 BAS: List of all Elementary Cartesian Basis Functions
 =====================================================

 The numbering in the list below (to the right of the function characteristics) is referred
 to in print-outs of MO eigenvectors and Mulliken populations in the BAS representation
 (as contrasted to the SFO representation).

 Notes:
 1. The functions are characterized by a polynomial prefactor (powers of x,y,z and r) and
    an exponential decay factor alpha.
 2. Since the basis sets are specific for an atom TYPE, the individual functions occur on
    all atoms of that type.
 3. The word 'Core' in the left margin signals that it is a Core Function (CF) : not a
    degree of freedom in the valence set, but only used to ensure orthogonalization of
    the other valence basis functions on the frozen Core Orbitals.


 (power of) X  Y  Z  R     Alpha  on Atom
            ==========     =====     ==========

 C                                    1
                                  ---------------------------------------------------------------------------
            0  0  0  0     7.680      1
            0  0  0  0     5.000      2
            0  0  0  1     1.280      3
            0  0  0  1     2.100      4
            0  0  0  1     4.600      5
            1  0  0  0     0.820      6
            0  1  0  0     0.820      7
            0  0  1  0     0.820      8
            1  0  0  0     1.480      9
            0  1  0  0     1.480     10
            0  0  1  0     1.480     11
            1  0  0  0     2.940     12
            0  1  0  0     2.940     13
            0  0  1  0     2.940     14
            2  0  0  0     2.200     15
            1  1  0  0     2.200     16
            1  0  1  0     2.200     17
            0  2  0  0     2.200     18
            0  1  1  0     2.200     19
            0  0  2  0     2.200     20
            3  0  0  0     3.300     21
            2  1  0  0     3.300     22
            2  0  1  0     3.300     23
            1  2  0  0     3.300     24
            1  1  1  0     3.300     25
            1  0  2  0     3.300     26
            0  3  0  0     3.300     27
            0  2  1  0     3.300     28
            0  1  2  0     3.300     29
            0  0  3  0     3.300     30

 N                                    2
                                  ---------------------------------------------------------------------------
            0  0  0  0     8.740     31
            0  0  0  0     5.900     32
            0  0  0  1     5.150     33
            0  0  0  1     2.500     34
            0  0  0  1     1.500     35
            1  0  0  0     3.680     36
            0  1  0  0     3.680     37
            0  0  1  0     3.680     38
            1  0  0  0     1.880     39
            0  1  0  0     1.880     40
            0  0  1  0     1.880     41
            1  0  0  0     1.000     42
            0  1  0  0     1.000     43
            0  0  1  0     1.000     44
            2  0  0  0     2.200     45
            1  1  0  0     2.200     46
            1  0  1  0     2.200     47
            0  2  0  0     2.200     48
            0  1  1  0     2.200     49
            0  0  2  0     2.200     50
            3  0  0  0     3.300     51
            2  1  0  0     3.300     52
            2  0  1  0     3.300     53
            1  2  0  0     3.300     54
            1  1  1  0     3.300     55
            1  0  2  0     3.300     56
            0  3  0  0     3.300     57
            0  2  1  0     3.300     58
            0  1  2  0     3.300     59
            0  0  3  0     3.300     60

 O                                    3    4
                                  ---------------------------------------------------------------------------
            0  0  0  0     9.800     61   91
            0  0  0  0     6.800     62   92
            0  0  0  1     7.580     63   93
            0  0  0  1     2.880     64   94
            0  0  0  1     1.720     65   95
            1  0  0  0     4.080     66   96
            0  1  0  0     4.080     67   97
            0  0  1  0     4.080     68   98
            1  0  0  0     2.080     69   99
            0  1  0  0     2.080     70  100
            0  0  1  0     2.080     71  101
            1  0  0  0     1.120     72  102
            0  1  0  0     1.120     73  103
            0  0  1  0     1.120     74  104
            2  0  0  0     2.000     75  105
            1  1  0  0     2.000     76  106
            1  0  1  0     2.000     77  107
            0  2  0  0     2.000     78  108
            0  1  1  0     2.000     79  109
            0  0  2  0     2.000     80  110
            3  0  0  0     3.000     81  111
            2  1  0  0     3.000     82  112
            2  0  1  0     3.000     83  113
            1  2  0  0     3.000     84  114
            1  1  1  0     3.000     85  115
            1  0  2  0     3.000     86  116
            0  3  0  0     3.000     87  117
            0  2  1  0     3.000     88  118
            0  1  2  0     3.000     89  119
            0  0  3  0     3.000     90  120

 H                                    5    6    7
                                  ---------------------------------------------------------------------------
            0  0  0  0     0.690    121  133  145
            0  0  0  0     0.920    122  134  146
            0  0  0  0     1.580    123  135  147
            1  0  0  0     1.250    124  136  148
            0  1  0  0     1.250    125  137  149
            0  0  1  0     1.250    126  138  150
            2  0  0  0     2.500    127  139  151
            1  1  0  0     2.500    128  140  152
            1  0  1  0     2.500    129  141  153
            0  2  0  0     2.500    130  142  154
            0  1  1  0     2.500    131  143  155
            0  0  2  0     2.500    132  144  156

 Total number of charge fitting functions (nprimf)       486
 Total number of Cartesian basis functions (naos)        156
 Total number of Cartesian core functions  (ncos)          0

1
 ***************************************************************************************************



                                              ***********************
                                              *  T E C H N I C A L  *
                                              ***********************
  



 =============================================================
 P A R A L L E L I Z A T I O N  and  V E C T O R I Z A T I O N
 =============================================================
  
 Nr of parallel processes:                               12
 Maximum vector length in NumInt loops:                 128



 =====================
 S C F   U P D A T E S
 =====================
  
 Max. nr. of cycles:                               300
 Convergence criterion:                              0.0000010000
   secondary criterion:                              0.0010000000

 Mix parameter (when DIIS does not apply):           0.2000000000
 Mixed ADIIS+SDIIS will be used                  
    Max number of expansion vectors:                10
    Pure ADIIS when Max([F,P]) is above              0.1000000000
    Pure SDIIS when Max([F,P]) is below              0.0010000000
 Automatic ElectronSmearing (in case of problematic SCF convergence) disabled



 =================
 P R E C I S I O N  ***  (General: NumInt, NeglectFunctionTails, ...)  ***
 =================
  

 NumInt:           Target precision:                 4.0000000000
 -------           Initial precision:                4.0000000000
                   Min. precision (optimization):    4.0000000000

 Neglect Functions:          Basis functions:        0.1000000000E-05
 ------------------          Fit functions:          0.1000000000E-05



 ===========================
 L I N E A R   S C A L I N G
 ===========================
  

 Cut-off radii density fit:                        0.1000000000E-07
 Overlap cut-off criterion AO matrix elements:     0.1000000000E-05
 Cut-offs for Coulomb potential and fitted density:0.1000000000E-07
 Cut-off criterion for Coulomb multipole terms:    0.1000000000E-07
 Progressive Convergence parameter:                 0.000000000    
1
 ***************************************************************************************************



                                            ***************************
                                            *  C O M P U T A T I O N  *
                                            ***************************
  

 Number of elements of the density matrix on this node (used, total):      1113     12246



 ===========================================
 Numerical Integration : Fuzzy Cells (Becke)
 ===========================================
  
 Becke grid quality: NORMAL         
  
 Lebedev angular grid order:             min:  11 max:  23
 Nr. of radial points:                   min:  46 max:  52

 Total nr. of points:      45344
 Nr. of blocks:              355
 Block length:               128
 Nr. of dummy points:         96


 Test of Precision of the Numerical Integration Grid
 ===================================================

 Integral of the Total Core Density:                   0.00000000000000



 ========================
 Density Fitting (zlmFit)
 ========================
  
 ZlmFit Fit Quality: NORMAL         
  
 Max L-expansion:                        min:   6 max:   7
 Nr. of radial interpolation points:     min:  39 max:  54



 =====
 S C F  ***  ScaSCF  ***
 =====
  
 Initial density matrix is calculated as sum of fragments

 CYCLE    1
 SCF Error: norm([F,P])=      4.595819154757, max([F,P])=      1.151429233604
 orbitals (Q,E):
 ---------------
 A :7...26           ( 2.00    -0.8442)  ( 2.00    -0.6765)  ( 2.00    -0.5814)  ( 2.00    -0.5782)
                     ( 2.00    -0.5644)  ( 2.00    -0.5265)  ( 2.00    -0.4923)  ( 2.00    -0.3876)
                     ( 2.00    -0.3808)  ( 2.00    -0.3708)  ( 0.00    -0.1856)  ( 0.00    -0.0457)
                     ( 0.00    -0.0366)  ( 0.00     0.0008)  ( 0.00     0.0058)  ( 0.00     0.0587)
                     ( 0.00     0.0852)  ( 0.00     0.0868)  ( 0.00     0.1513)  ( 0.00     0.1621)

 CYCLE    2
   MIX coefficients:  0.8000  0.2000
 SCF Error: norm([F,P])=      0.976028843835, max([F,P])=      0.229330562112
 orbitals (Q,E):
 ---------------
 A :7...17           ( 2.00    -0.8113)  ( 2.00    -0.6401)  ( 2.00    -0.5515)  ( 2.00    -0.5443)
                     ( 2.00    -0.5386)  ( 2.00    -0.4857)  ( 2.00    -0.4613)  ( 2.00    -0.3442)
                     ( 2.00    -0.3365)  ( 2.00    -0.3227)  ( 0.00    -0.1705)

 CYCLE    3
  SDIIS (wt  0.000): -0.4667  1.4667
 A-DIIS (wt  1.000):  0.0000  1.0000
  DIIS coefficients:  0.0000  1.0000
 SCF Error: norm([F,P])=      0.372893066549, max([F,P])=      0.075872191616
 orbitals (Q,E):
 ---------------
 A :7...17           ( 2.00    -0.6964)  ( 2.00    -0.5206)  ( 2.00    -0.4770)  ( 2.00    -0.4459)
                     ( 2.00    -0.4241)  ( 2.00    -0.3597)  ( 2.00    -0.3471)  ( 2.00    -0.2423)
                     ( 2.00    -0.2206)  ( 2.00    -0.2040)  ( 0.00    -0.0925)

 CYCLE    4
  SDIIS (wt  0.000):  0.3421  0.0927  0.5652
 A-DIIS (wt  1.000):  0.0000  0.6882  0.3118
  DIIS coefficients:  0.0000  0.6882  0.3118
 SCF Error: norm([F,P])=      0.649374518560, max([F,P])=      0.134275743560
 orbitals (Q,E):
 ---------------
 A :7...17           ( 2.00    -0.7210)  ( 2.00    -0.5521)  ( 2.00    -0.4815)  ( 2.00    -0.4706)
                     ( 2.00    -0.4564)  ( 2.00    -0.3921)  ( 2.00    -0.3765)  ( 2.00    -0.2804)
                     ( 2.00    -0.2579)  ( 2.00    -0.2446)  ( 0.00    -0.1080)

 CYCLE    5
  SDIIS (wt  0.663): -0.2100  0.5686 -0.0400  0.6814
 A-DIIS (wt  0.337):  0.0000  0.0000  0.0000  1.0000
  DIIS coefficients: -0.1392  0.3768 -0.0265  0.7889
 SCF Error: norm([F,P])=      0.126342567078, max([F,P])=      0.034399747704
 orbitals (Q,E):
 ---------------
 A :7...17           ( 2.00    -0.7516)  ( 2.00    -0.5742)  ( 2.00    -0.5031)  ( 2.00    -0.4916)
                     ( 2.00    -0.4728)  ( 2.00    -0.4164)  ( 2.00    -0.4004)  ( 2.00    -0.2903)
                     ( 2.00    -0.2728)  ( 2.00    -0.2561)  ( 0.00    -0.1260)

 CYCLE    6
  SDIIS (wt  0.757): -0.0038  0.0962  0.0121  0.4346  0.4609
 A-DIIS (wt  0.243):  0.0000  0.0000  0.0000  0.3608  0.6392
  DIIS coefficients: -0.0029  0.0728  0.0092  0.4167  0.5042
 SCF Error: norm([F,P])=      0.096039822712, max([F,P])=      0.025038178159
 orbitals (Q,E):
 ---------------
 A :7...17           ( 2.00    -0.7406)  ( 2.00    -0.5691)  ( 2.00    -0.4962)  ( 2.00    -0.4872)
                     ( 2.00    -0.4714)  ( 2.00    -0.4091)  ( 2.00    -0.3929)  ( 2.00    -0.2914)
                     ( 2.00    -0.2715)  ( 2.00    -0.2571)  ( 0.00    -0.1224)

 CYCLE    7
  SDIIS (wt  0.951): -0.0039  0.0408  0.0061  0.2197  0.3012  0.4361
 A-DIIS (wt  0.049):  0.0000  0.0000  0.0000  0.0000  0.0000  1.0000
  DIIS coefficients: -0.0037  0.0388  0.0058  0.2088  0.2863  0.4640
 SCF Error: norm([F,P])=      0.023119748606, max([F,P])=      0.005897725640
 orbitals (Q,E):
 ---------------
 A :7...17           ( 2.00    -0.7411)  ( 2.00    -0.5684)  ( 2.00    -0.4957)  ( 2.00    -0.4861)
                     ( 2.00    -0.4696)  ( 2.00    -0.4096)  ( 2.00    -0.3933)  ( 2.00    -0.2890)
                     ( 2.00    -0.2697)  ( 2.00    -0.2547)  ( 0.00    -0.1210)

 CYCLE    8
  SDIIS (wt  0.995): -0.0030  0.0198  0.0017  0.1083  0.1535  0.3048  0.4149
 A-DIIS (wt  0.005):  0.0000  0.0000  0.0000  0.0000  0.0000  0.0097  0.9903
  DIIS coefficients: -0.0030  0.0197  0.0017  0.1077  0.1527  0.3033  0.4178
 SCF Error: norm([F,P])=      0.004950104419, max([F,P])=      0.001497308030
 orbitals (Q,E):
 ---------------
 A :7...17           ( 2.00    -0.7411)  ( 2.00    -0.5685)  ( 2.00    -0.4958)  ( 2.00    -0.4863)
                     ( 2.00    -0.4698)  ( 2.00    -0.4095)  ( 2.00    -0.3932)  ( 2.00    -0.2893)
                     ( 2.00    -0.2700)  ( 2.00    -0.2551)  ( 0.00    -0.1212)

 CYCLE    9
  SDIIS (wt  0.995): -0.0020  0.0078 -0.0001  0.0437  0.0661  0.1854  0.4377  0.2614
 A-DIIS (wt  0.005):  0.0000  0.0000  0.0000  0.0000  0.0000  0.0000  0.4552  0.5448
  DIIS coefficients: -0.0020  0.0078 -0.0001  0.0435  0.0658  0.1845  0.4378  0.2628
 SCF Error: norm([F,P])=      0.004388668794, max([F,P])=      0.001652674206
 orbitals (Q,E):
 ---------------
 A :7...17           ( 2.00    -0.7411)  ( 2.00    -0.5685)  ( 2.00    -0.4959)  ( 2.00    -0.4863)
                     ( 2.00    -0.4699)  ( 2.00    -0.4095)  ( 2.00    -0.3932)  ( 2.00    -0.2895)
                     ( 2.00    -0.2701)  ( 2.00    -0.2552)  ( 0.00    -0.1213)

 CYCLE   10
  SDIIS (wt  1.000): -0.0001  0.0003  0.0001  0.0024  0.0049  0.0195  0.0697  0.0637  0.8396
  DIIS coefficients: -0.0001  0.0003  0.0001  0.0024  0.0049  0.0195  0.0697  0.0637  0.8396
 SCF Error: norm([F,P])=      0.000181137681, max([F,P])=      0.000056656859
 orbitals (Q,E):
 ---------------
 A :7...17           ( 2.00    -0.7411)  ( 2.00    -0.5685)  ( 2.00    -0.4959)  ( 2.00    -0.4863)
                     ( 2.00    -0.4699)  ( 2.00    -0.4095)  ( 2.00    -0.3932)  ( 2.00    -0.2894)
                     ( 2.00    -0.2700)  ( 2.00    -0.2552)  ( 0.00    -0.1213)

 CYCLE   11
  SDIIS (wt  1.000): -0.0000  0.0000  0.0000  0.0002  0.0006  0.0033  0.0151  0.0163  0.2724  0.6921
  DIIS coefficients: -0.0000  0.0000  0.0000  0.0002  0.0006  0.0033  0.0151  0.0163  0.2724  0.6921
 SCF Error: norm([F,P])=      0.000024430039, max([F,P])=      0.000004631832
 orbitals (Q,E):
 ---------------
 A :7...17           ( 2.00    -0.7411)  ( 2.00    -0.5685)  ( 2.00    -0.4959)  ( 2.00    -0.4863)
                     ( 2.00    -0.4699)  ( 2.00    -0.4095)  ( 2.00    -0.3932)  ( 2.00    -0.2894)
                     ( 2.00    -0.2700)  ( 2.00    -0.2552)  ( 0.00    -0.1213)

 CYCLE   12
  SDIIS (wt  1.000): -0.0000 -0.0000 -0.0000  0.0000  0.0001  0.0010  0.0014  0.0290  0.1330  0.8356
  DIIS coefficients: -0.0000 -0.0000 -0.0000  0.0000  0.0001  0.0010  0.0014  0.0290  0.1330  0.8356
 SCF Error: norm([F,P])=      0.000002841840, max([F,P])=      0.000000655075
 orbitals (Q,E):
 ---------------
 A :7...17           ( 2.00    -0.7411)  ( 2.00    -0.5685)  ( 2.00    -0.4959)  ( 2.00    -0.4863)
                     ( 2.00    -0.4699)  ( 2.00    -0.4095)  ( 2.00    -0.3932)  ( 2.00    -0.2894)
                     ( 2.00    -0.2700)  ( 2.00    -0.2552)  ( 0.00    -0.1213)

 SCF CONVERGED

 CYCLE   13
1
 ***************************************************************************************************



                                                *******************
                                                *  R E S U L T S  *
                                                *******************
  
 *** Using FIT density in Focky
  SDIIS (wt  1.000): -0.0000  0.0000  0.0000 -0.0000  0.0001  0.0001  0.0030  0.0215  0.1976  0.7777
  DIIS coefficients: -0.0000  0.0000  0.0000 -0.0000  0.0001  0.0001  0.0030  0.0215  0.1976  0.7777
 SCF Error: norm([F,P])=      0.000000392001, max([F,P])=      0.000000072315

 Orbital Energies, per Irrep and Spin:
 ======================================
                        Occup              E (au)              E (eV)       Diff (eV) with prev. cycle
                        -----      --------------------        ------       --------------------------
 A
               7        2.000     -0.74113333638661E+00       -20.167              -3.16E-07
               8        2.000     -0.56849925326104E+00       -15.470              -4.81E-07
               9        2.000     -0.49587670800556E+00       -13.493              -1.17E-07
              10        2.000     -0.48632238006731E+00       -13.234              -2.72E-07
              11        2.000     -0.46990948234617E+00       -12.787               2.10E-07
              12        2.000     -0.40952599306217E+00       -11.144              -6.44E-07
              13        2.000     -0.39323957225111E+00       -10.701              -4.65E-07
              14        2.000     -0.28943234554335E+00        -7.876              -8.46E-08
              15        2.000     -0.27004431854055E+00        -7.348              -6.70E-08
              16        2.000     -0.25515867553605E+00        -6.943              -2.80E-08
              17        0.000     -0.12125653702633E+00        -3.300
              18        0.000     -0.17482362162924E-01        -0.476
              19        0.000      0.30121942965652E-01         0.820
              20        0.000      0.37421396872447E-01         1.018
              21        0.000      0.39228929620488E-01         1.067
              22        0.000      0.10878333404741E+00         2.960
              23        0.000      0.12440960617561E+00         3.385
              24        0.000      0.12999398433115E+00         3.537
              25        0.000      0.19744365306461E+00         5.373
              26        0.000      0.22982415928161E+00         6.254
  
 HOMO :       16 A                -0.25515867553605E+00
 LUMO :       17 A                -0.12125653702633E+00
  


 All Electron Calculation, thus no Orbital Energies of the Core Orbitals are calculated


 Fit test: (difference of exact and fit density, squared integrated, result summed over spins)
         Sum-of-Fragments:                             0.00000000046194
         Orthogonalized Fragments:                     0.00004063481373
         SCF:                                          0.00008263135511



 ==========================
 Electron Density at Nuclei
 ==========================
  
 The electron density is calculated at points on a small sphere around the center of a nucleus.
 The printed electron density is the average electron density on these points.
 The radius of the sphere is the printed approximate finite nuclear radius.

         Atom        Nuclear Radius (Angstrom)             Electron Density (a.u.)
         ----        -------------------------             -----------------------
     1)   C                 0.0000320678                              126.53901
     2)   N                 0.0000333706                              205.01293
     3)   O                 0.0000345546                              311.83704
     4)   O                 0.0000345546                              311.84055
     5)   H                 0.0000181514                                0.50687
     6)   H                 0.0000181514                                0.50693
     7)   H                 0.0000181514                                0.50342



 =======================================
 M U L L I K E N   P O P U L A T I O N S
 =======================================
  
 The survey below gives for each atom:
 a) the total charge (Z minus electrons)
 b) the net spin polarization (nr of electrons spin-A minus spin-B)
 c) for each spin the atomic electron valence density (integrated) per L-value.

 Atom              Charge    Spin density          S         P         D         F
 ----              ------    ------------       ------    ------    ------    ------
 1 C               0.6804                       2.8096    2.4617    0.0453    0.0029
 2 N               0.5182                       3.2453    3.0136    0.2100    0.0128
 3 O              -0.3805                       3.8475    4.4604    0.0643    0.0084
 4 O              -0.3807                       3.8477    4.4604    0.0643    0.0084
 5 H              -0.1529                       1.0710    0.0761    0.0058    0.0000
 6 H              -0.1528                       1.0708    0.0762    0.0058    0.0000
 7 H              -0.1318                       1.0439    0.0819    0.0060    0.0000

 Populations of individual BAS functions
 ----------------------------------------
 1 C            0.4961  1.4992 -0.0917  0.9597 -0.0537 -0.0332 -0.1937 -0.1461  0.6031  0.8426
                0.8185  0.1499  0.2125  0.2081  0.0136  0.0068  0.0066  0.0062  0.0060  0.0061
                0.0053  0.0006  0.0009 -0.0024  0.0002 -0.0017  0.0001  0.0001 -0.0002 -0.0000
 2 N            0.5345  1.4531 -0.0474  1.0280  0.2772  0.1754  0.1804  0.1611  0.8992  0.7362
                0.8075 -0.0593 -0.0189  0.1321  0.0447  0.0612  0.0127  0.0593  0.0476 -0.0155
                0.0019  0.0038  0.0024  0.0058  0.0017 -0.0050  0.0106  0.0070 -0.0081 -0.0073
 3 O            0.6488  1.3082  0.0137  1.0474  0.8294  0.3209  0.2550  0.2539  0.9264  0.7850
                0.7834  0.4556  0.3094  0.3709  0.0020  0.0192  0.0059  0.0201  0.0151  0.0019
               -0.0044 -0.0025 -0.0003  0.0096  0.0014 -0.0025  0.0115  0.0074 -0.0061 -0.0057
 4 O            0.6490  1.3078  0.0139  1.0473  0.8297  0.3297  0.2462  0.2539  0.9458  0.7656
                0.7836  0.4802  0.2845  0.3708 -0.0001  0.0179  0.0044  0.0236  0.0167  0.0019
               -0.0064 -0.0048 -0.0015  0.0108  0.0011 -0.0019  0.0145  0.0089 -0.0067 -0.0057
 5 H            0.0640  0.6944  0.3126  0.0143  0.0358  0.0259 -0.0042  0.0014  0.0004  0.0086
                0.0015 -0.0018
 6 H            0.0629  0.6954  0.3125  0.0150  0.0351  0.0260 -0.0032  0.0014  0.0005  0.0075
                0.0014 -0.0018
 7 H            0.0051  0.7286  0.3101  0.0186  0.0256  0.0377 -0.0034  0.0002  0.0015 -0.0069
                0.0021  0.0124

 Gross Charges per Atom (Z minus electrons)
 ==========================================
             0.6804    0.5182   -0.3805   -0.3807   -0.1529   -0.1528   -0.1318
 Net Total:  0.00000000


 Atom-Atom Population Matrix (off-diagonal elements not doubled)
 ===============================================================

     1 :     3.9724
     2 :     0.3885    5.1968
     3 :    -0.0621    0.4708    8.0843
     4 :    -0.0617    0.4708   -0.1006    8.0841
     5 :     0.3528   -0.0194   -0.0115    0.0094    0.9532
     6 :     0.3528   -0.0191    0.0092   -0.0116   -0.0758    0.9530
     7 :     0.3769   -0.0066   -0.0096   -0.0098   -0.0560   -0.0557    0.8926



 =================================================
 H I R S H F E L D   C H A R G E   A N A L Y S I S
 =================================================
  
 For each fragment: the (numerical) integral of rho(scf) * rho(fragment)/rho(sum-of-fragments)
 (nuclear charges are included, electrons are counted negative)

 The fragments and their ordering are defined in the early G E O M E T R Y output section.
 If you use single-atom fragments, this usually implies that all atoms of the same
 chemical type are grouped together. This may not be the order in which you listed them
 in the input file!

    1  C                        -0.0380
    2  N                         0.2133
    3  O                        -0.1844
    4  O                        -0.1845
    5  H                         0.0621
    6  H                         0.0622
    7  H                         0.0692

 Sum of these charges (accuracy NumInt/Tails) =          -0.00000269



 =============================
 V O R O N O I   C H A R G E S
 =============================
  
 For each atom: the (numerical) integral of the total electronic charge density in its Voronoi cell,
 i.e. the region of space that is closer to that atom than to any other atom.
 (cf. Wigner-Seitz cells in crystals)

 Within the Voronoi cell the subintegrals over the atomic sphere and the remaining part are evaluated
 separately to give the numbers of electrons (negative charge) in these regions.
 The net total charge in the cell (including the nuclear charge) is also given.

 Values are provided for
    a) the Initial (sum-of-fragments) density
    b) the Orthogonalized-Fragments density
    c) the SCF density
    d) the Voronoi Deformation Density (VDD): the difference SCF-Initial for the complete atomic cell


  Atom                Initial                    OrthFrag                   SCF
             Sphere RestCell NetTotal   Sphere RestCell NetTotal   Sphere RestCell NetTotal      VDD
 -----       ------------------------   ------------------------   ------------------------    -----
    1 C      -2.270   -2.213    1.517   -2.440   -2.457    1.103   -2.304   -2.218    1.478   -0.039
    2 N      -2.947   -3.884    0.169   -3.307   -3.546    0.147   -2.949   -3.641    0.410    0.241
    3 O      -3.308   -4.782   -0.090   -3.486   -4.587   -0.072   -3.334   -4.965   -0.299   -0.209
    4 O      -3.308   -4.802   -0.110   -3.486   -4.600   -0.086   -3.335   -4.984   -0.319   -0.209
    5 H      -0.076   -1.414   -0.490   -0.098   -1.263   -0.361   -0.110   -1.314   -0.424    0.066
    6 H      -0.076   -1.425   -0.501   -0.098   -1.271   -0.369   -0.110   -1.323   -0.433    0.068
    7 H      -0.075   -1.419   -0.494   -0.097   -1.265   -0.363   -0.108   -1.305   -0.413    0.081
 ---------------------------------------------------------------------------------------------------
 Total NetCharge:              -0.000                      0.000                     -0.000    0.000
 (accuracy NumInt/Tails)

 Remark: the 'NetTotal' Voronoi charges often do not match the Mulliken and/or Hirshfeld charges very
 well. This is caused by the fact that chemically different atoms are not treated in accordance with
 their relative sizes. (Voronoi cells are defined by boundary planes halfway between the atoms.)
 However, the CHANGES in charge, comparing 'Initial' to 'SCF' for instance, do give a fair indication
 of the flow of charge caused by the relaxation from sum-of-fragments to self-consistency.

 Warning: the absolute accuracy of the VDD charges obtained using the Fuzzy Cells (Becke) integration
 scheme is much poorer than the one obtained with an 'equivalent' Voronoi integration grid. 



 =================================================================
 M U L T I P O L E   D E R I V E D   C H A R G E   A N A L Y S I S
 =================================================================

 This charge analysis uses the atomic multipoles (obtained from the fitted density) up to some level X,
 and reconstructs these multipoles exactly (up to level X) by distributing charges over all atoms.
 This is achieved by using Lagrange multipliers and a weight function to keep the multipoles local.

 Dummy atoms can be included (by setting INCDUM in MDC-block to 1) to obtain a fractional charge.
 This is generally useful and necessary only for small symmetrical molecules, when there are not
 enough degrees of freedom to reconstruct the multipoles.

 Since the atomic multipoles are reconstructed up to level X,
 the molecular multipoles are represented also up to level X.
 The recommended level is to reconstruct up to quadrupole : -> MDC-q charges.

 See: M. Swart, P.Th. van Duijnen, J.G. Snijders, J.Comput.Chem., (2001), p. 79-88.

 ------------------------------------------------------------- 
 Atomic electronic multipole moments from SCF equations (a.u.)
 ------------------------------------------------------------- 

   atom        charge        dip-x     dip-y     dip-z      quad-xx   quad-xy   quad-xz   quad-yy   quad-yz   quad-zz
 --------------------------------------------------------------------------------------------------------------------
    1 C      0.330499     0.018081 -0.000857 -0.012420     0.008968  0.000670 -0.003822  0.024491  0.000369 -0.033460
    2 N      0.304628     0.073335 -0.003337 -0.004299     0.096087  0.003178 -0.001324  0.208751  0.001929 -0.304838
    3 O     -0.274939    -0.133718 -0.274916  0.003803    -0.247241  0.360282 -0.000493  0.394215 -0.004632 -0.146974
    4 O     -0.274945    -0.107652  0.286095  0.006507    -0.340729 -0.315623 -0.003119  0.487652  0.008527 -0.146923
    5 H     -0.029596     0.002277  0.020612  0.010115    -0.051490 -0.042656 -0.021937  0.098030  0.077415 -0.046540
    6 H     -0.029621     0.000239 -0.020689  0.010282    -0.038733  0.050959 -0.029293  0.083620 -0.075706 -0.044887
    7 H     -0.026026    -0.000592 -0.000051 -0.024730    -0.051726 -0.001773  0.047585 -0.113295 -0.001661  0.165021

 --------------------------------------- 
 Multipole derived atomic charges (a.u.)
 --------------------------------------- 

 The MDC-m charges are just the Monopole terms in the multipole expansion, while for the MDC-d charges
 also the Dipoles are reconstructed. The usually preferred charges are the MDC-q charges.
 These reconstruct the Monopoles, Dipoles and Quadrupoles (both atomic AND molecular).

        Atom    Level:     MDC-m        MDC-d        MDC-q
 ---------------------------------------------------------
     1     C            0.330499     0.272684     1.333056
     2     N            0.304628     0.456443     0.349635
     3     O           -0.274939    -0.345356    -0.371221
     4     O           -0.274945    -0.345457    -0.376762
     5     H           -0.029596    -0.016267    -0.325873
     6     H           -0.029621    -0.016265    -0.327726
     7     H           -0.026026    -0.005783    -0.281109

 ------------------------------------------------ 
 Average absolute deviations in atomic multipoles
 ------------------------------------------------ 

 Stated here are the average differences between the atomic multipoles
 and the reconstructed atomic multipoles (from the distributed charges).
 If these values are not zero, this means there are not enough degrees of freedom,
 to be able to reconstruct the atomic multipoles. (This usually happens only
 for small and/or highly symmetric molecules). If this is the case, one could add
 dummy atoms as extra point charges (and setting INCDUM in MDC-block to 1).

 Level:                                 MDC-d        MDC-q
 ---------------------------------------------------------
 Charge   (a.u.)                       0.0000       0.0000
 Dipole   (Debye)                      0.0000       0.0323
 Quad.    (a.u.)                       0.0896       0.0041

 --------------------------------------- 
 Represented molecular multipole moments
 --------------------------------------- 

 Given here are the Molecular multipole moments from the atomic charges, and from the Fit Density.
 Note that the atomic charges represent the latter, NOT the ones from the Exact density.

            Q (a.u.)             Dipole moment (Debye)                                          Quadrupole moment (a.u.)
                                 x         y         z              xx        xy        xz        yy        yz        zz
------------------------------------------------------------------------------------------------------------------------
MDC-m        -0.0000       -3.1445    0.1452    0.0394          0.2585   -0.7068    0.0304   -1.9102   -0.0111    1.6517
MDC-d        -0.0000       -3.5208    0.1627    0.0121          0.1493   -0.7926    0.0959   -2.3298   -0.0237    2.1805
MDC-q        -0.0000       -3.4570    0.1966   -0.0791         -0.2029   -0.7516    0.2951   -2.4868   -0.0477    2.6897
 
Fit.Dens.    -0.0000       -3.5208    0.1627    0.0121         -0.2287   -0.8140    0.1077   -2.5428   -0.0313    2.7715



 =============
 Dipole Moment  ***  (Debye)  ***
 =============
  
 Vector   :        -3.53657914      0.16306695      0.01165269
 Magnitude:         3.54035572

 This molecular dipole moment is calculated with analytic integration



 =========================================
 Quadrupole Moment (Buckingham convention)  ***  (a.u.)  ***
 =========================================
  
      quad-xx        quad-xy        quad-xz        quad-yy        quad-yz        quad-zz
     -0.22351502    -0.78964269     0.10166830    -2.54734729    -0.02876771     2.77086230

 This molecular quadrupole moment is calculated with analytic integration
1



 ===========================
 B O N D I N G   E N E R G Y  ***  (decomposition)  ***
 ===========================
  
*** IMPORTANT NOTE ***

The bond energy is computed as an energy difference between molecule and
fragments. In particular when the fragments are single atoms, they are usually
computed as SPHERICALLY SYMMETRIC and SPIN-RESTRICTED. Obviously, this usually
does NOT represent the true atomic groundstate.

To obtain the 'real' bond energy, (atomic) correction terms must be applied
for the true (multiplet) fragment ground state. See ref: E.J.Baerends,
V.Branchadell, M.Sodupe, Chem.Phys.Lett.265 (1997) 481

General theoretical background on the bond energy decomposition scheme used
here (Morokuma-Ziegler) can be found in the review paper:
F.M. Bickelhaupt and E.J. Baerends,
"Kohn-Sham Density Functional Theory: Predicting and Understanding Chemistry"
In: Rev. Comput. Chem.; Lipkowitz, K. B. and Boyd, D. B., Eds.;
Wiley-VCH: New York, 2000, Vol. 15, 1-86.

Symbols used in the Bickelhaupt-Baerends (BB) paper are given below to make
the direct connection to that paper, where detailed explanations can be found
on the meaning of the various terms.


                                                   hartree              eV         kcal/mol           kJ/mol
                                      --------------------     -----------       ----------      -----------

Pauli Repulsion
  Kinetic (Delta T^0):                  15.747484583986058        428.5109          9881.70         41345.01
  Delta V^Pauli Coulomb:                -8.327779277272940       -226.6104         -5225.76        -21864.58
  Delta V^Pauli LDA-XC:                 -1.843631636299455        -50.1678         -1156.90         -4840.45
  Delta V^Pauli GGA-Exchange:            0.108299263589776          2.9470            67.96           284.34
  Delta V^Pauli GGA-Correlation:        -0.127299798758985         -3.4640           -79.88          -334.23
                                      --------------------     -----------       ----------      -----------
  Total Pauli Repulsion:                 5.557073135244455        151.2157          3487.12         14590.09
 (Total Pauli Repulsion =
  Delta E^Pauli in BB paper)

Steric Interaction
  Pauli Repulsion (Delta E^Pauli):       5.557073135244455        151.2157          3487.12         14590.09
  Electrostatic Interaction:            -1.181744927467701        -32.1569          -741.56         -3102.67
 (Electrostatic Interaction =
  Delta V_elstat in the BB paper)
                                      --------------------     -----------       ----------      -----------
  Total Steric Interaction:              4.375328207776754        119.0587          2745.56         11487.42
 (Total Steric Interaction =
  Delta E^0 in the BB paper)

Orbital Interactions
  A:                                    -5.751076558829556       -156.4948         -3608.86        -15099.45
                                      --------------------     -----------       ----------      -----------
  Total Orbital Interactions:           -5.751076558829556       -156.4948         -3608.86        -15099.45

Alternative Decomposition Orb.Int.
  Kinetic:                             -14.437626732021348       -392.8678         -9059.75        -37905.98
  Coulomb:                               8.078120738297832        219.8168          5069.10         21209.10
  XC:                                    0.608429434893958         16.5562           381.80          1597.43
                                      --------------------     -----------       ----------      -----------
  Total Orbital Interactions:           -5.751076558829558       -156.4948         -3608.86        -15099.45

  Residu (E=Steric+OrbInt+Res):         -0.000085162418018         -0.0023            -0.05            -0.22

Total Bonding Energy:                   -1.375833513470820        -37.4383          -863.35         -3612.25


Summary of Bonding Energy (energy terms are taken from the energy decomposition above)
======================================================================================

  Electrostatic Energy:                 -1.181744927467701        -32.1569          -741.56         -3102.67
  Kinetic Energy:                        1.309857851964709         35.6430           821.95          3439.03
  Coulomb (Steric+OrbInt) Energy:       -0.249743701393125         -6.7959          -156.72          -655.70
  XC Energy:                            -1.254202736574705        -34.1286          -787.02         -3292.91
                                      --------------------     -----------       ----------      -----------
  Total Bonding Energy:                 -1.375833513470822        -37.4383          -863.35         -3612.25


Correction terms (incorporated in energies above; only for test purposes):

1. Indication of fit-quality: 1st-order fit-correction used in the energy (hartree):   0.0002831329
2. Electrostatic (Fit correction):   0.0000000000



 =========================================
 F R A G M E N T   E N E R G Y   T E R M S  ***  (summed over all fragments)  ***
 =========================================
  

The energy terms below are (parts of) the Total Energy of the fragments from which the molecule
 is built.

Exchange and Correlation
  Exchange LDA:                        -25.171718920870600       -684.9573        -15795.49        -66088.34
  Exchange GGA:                         -3.056097288498490        -83.1606         -1917.73         -8023.78
  Correlation LDA:                       0.000000000000000          0.0000             0.00             0.00
  Correlation GGA:                      -0.988278807175897        -26.8924          -620.15         -2594.73
                                      --------------------     -----------       ----------      -----------
  Total XC:                            -29.216095016544983       -795.0104        -18333.38        -76706.85
1



 =======================================================
 S F O   P O P U L A T I O N S ,   M O   A N A L Y S I S
 =======================================================
  
 A Mulliken population analysis is performed on (input-)selected MOs. All populations refer to SFOs.
 BAS populations may have been printed directly after the SCF part.


                                       === A ===


 SFO contributions (%) per orbital
 (multiplication by the orbital occupation yields the SFO Gross Populations)

 Orb.:        7      8      9     10     11     12     13     14     15     16     17     18     19     20
 occup:     2.00   2.00   2.00   2.00   2.00   2.00   2.00   2.00   2.00   2.00   0.00   0.00   0.00   0.00
 CF+SFO     ----   ----   ----   ----   ----   ----   ----   ----   ----   ----   ----   ----   ----   ----
 ------
      2:   30.95   8.41   0.00  -0.05   0.00   0.00   0.01   0.00   0.78   0.00  -0.00   3.89   0.86  -0.00
      3:   -0.24  -0.22   0.00   0.03   0.00  -0.00   0.00   0.00  -0.23  -0.00   0.01 -12.36   0.08  -0.00
      6:    1.53   8.93   0.02  13.63   0.01   0.07   0.02   0.00   9.56   0.00   0.01  -0.12  57.79   0.01
      7:    0.56   0.97  -0.00  -0.03   0.00  -0.00  -0.00   0.00   0.28   0.00   0.00  -1.18  18.92  -0.09
      8:   -0.03  -0.33  -0.00  -0.08  -0.00  -0.00   0.00   0.00   0.02  -0.00   0.00   0.01  -1.10   0.00
      9:    0.00   0.02   0.00   0.03   6.84  34.97   0.00   0.10   0.02   0.54   0.00  -0.00   0.13   8.53
     10:    0.00   0.00  -0.00  -0.00   0.61  -0.81   0.00   0.01   0.00   0.85   0.00  -0.00   0.04 -43.36
     12:   -0.00   0.01  12.26   0.00   0.00   0.00  31.92   0.00   0.13   0.00  -0.19   0.32   0.32   0.00
     13:    0.00   0.00  -1.13  -0.01   0.00  -0.00   1.31  -0.00  -0.00   0.00  -0.54  -0.44  -1.08  -0.00
     16:    0.07   0.33   0.01   0.17   0.00   0.00   0.07   0.00   0.06   0.00   0.01  -0.00   1.33   0.00
     28:    8.15  12.91  -0.00   0.02   0.00   0.00   0.00   0.00   0.79   0.00   0.01   1.47  10.13   0.00
     29:    0.05   1.21   0.00   0.51   0.00   0.00   0.00   0.00   0.27  -0.00   0.00   0.30 -12.86  -0.00
     32:   23.59   1.51   0.03  19.81   0.03  -0.00   0.00  -0.00   0.12   0.00   0.01  -0.02   8.63  -0.00
     33:   -2.73   0.14   0.01   5.74   0.01   0.01   0.01  -0.00   1.24   0.00  -0.00  -0.36  -2.63  -0.00
     35:    0.05   0.00   0.00   0.05  11.89   0.01   0.00  -0.00   0.00   0.05   0.00  -0.00   0.02   0.02
     36:   -0.01   0.00  -0.00   0.01   4.75   3.12   0.00  -0.00   0.00   0.37  -0.00  -0.00  -0.01   0.06
     38:    0.00   0.01  49.57   0.12   0.00  -0.00   6.06  -0.00   0.00   0.00  38.75   0.06   0.04   0.00
     39:    0.00  -0.00  -1.39  -0.00   0.00   0.00   0.70  -0.00   0.00   0.00  -2.24  -0.01   0.03   0.00
     42:    0.42   0.02   0.00   0.10   0.00   0.01   0.00   0.00   3.20   0.01   0.00   0.00   0.06   0.00
     43:    0.00   0.00   0.00   0.00   0.13   0.60   0.00   0.01   0.03   1.35   0.00   0.00   0.00   0.31
     45:    0.00   0.00  -0.00   0.00   0.00   0.00   0.00   2.37   0.00   0.00   0.00   0.00   0.00   0.00
     54:    5.34  13.22   0.03   6.39  11.70   0.84   0.00   0.00  -0.10  -0.04  -0.00   0.14  -0.04  -0.00
     58:    1.12   2.49   0.00   0.53  11.59   0.31   0.03   0.08  39.07  27.65   0.02   0.21   2.33   0.18
     61:    0.04   4.59   0.06  17.02  11.53   5.65   0.00   0.02   1.82  20.10   0.00   0.07   0.84   0.16
     64:    0.00   0.00  14.76   0.06   0.01   0.01   7.33  48.67   0.04   0.10  29.33   0.01   0.01   0.04
     80:    5.33  13.22   0.02   6.48  11.61   0.85   0.00   0.00  -0.09  -0.04  -0.00   0.14  -0.04  -0.00
     84:    1.19   1.90  -0.00   1.20   9.52   0.10   0.03   0.09  40.68  31.53   0.02   0.19   2.06   0.14
     87:   -0.03   5.18   0.08  16.45  13.47   5.89   0.01   0.00   0.59  15.84  -0.00   0.10   1.11   0.19
     90:   -0.00   0.01  14.75   0.08   0.02   0.00   7.30  48.72   0.03   0.07  29.30   0.01   0.01   0.04
    105:    6.84   7.93   1.27   2.88   2.77  22.93   6.89   0.02   0.61   1.04   0.95   8.91   0.28  42.33
    106:   -0.32  -0.19   0.05   0.18   0.16   0.50   0.19   0.00   0.01  -0.06  -0.16  18.52   0.23  21.26
    107:   -0.24   0.02  -0.01  -0.02  -0.02   0.07   0.03   0.00   0.00  -0.01  -0.03  -0.49  -0.14   2.40
    108:    0.18  -0.02   0.06   0.14   0.06   0.17   0.00   0.01   0.08   0.04   0.01   0.17   2.20   0.25
    116:    6.86   7.92   1.35   2.94   2.70  22.55   7.21   0.02   0.60   1.03   1.00   9.08   0.27  41.15
    117:   -0.32  -0.19   0.05   0.18   0.15   0.49   0.20   0.00   0.01  -0.06  -0.17  18.74   0.23  20.50
    118:   -0.24   0.02  -0.01  -0.02  -0.02   0.07   0.03   0.01   0.00  -0.01  -0.03  -0.50  -0.14   2.37
    119:    0.27  -0.04   0.08   0.09   0.06   0.16   0.01   0.01   0.08   0.03   0.01   0.24   2.15   0.33
    127:    8.06   7.16   6.03   2.65   0.00   0.00  27.52   0.00   0.23   0.00   4.25  20.40   4.66   0.00
    128:   -0.25  -0.24   0.28   0.23   0.00   0.00   0.82   0.00  -0.07  -0.00  -0.27  31.74   0.34   0.00
    129:   -0.22   0.04  -0.04  -0.03  -0.00   0.00   0.11   0.00   0.01  -0.00  -0.14  -1.29  -0.32   0.00
    130:    0.26   0.00   0.25   0.13   0.00   0.00   0.07   0.00   0.22   0.00   0.17   0.01   1.95  -0.00
    131:    0.00   0.00   0.00   0.00   0.15   1.10  -0.00   0.02   0.00   0.02   0.00  -0.00   0.00   0.02
    132:    1.24   0.79  -0.07   0.30   0.00   0.00  -0.39  -0.00   0.00  -0.00  -0.08   1.39   0.17   0.00


 Summation over all MOs, multiplied by occupation: Total SFO Gross Populations in this Irrep
 ===========================================================================================

     2.00    0.83   -0.02   -0.00   -0.00    0.70    0.03   -0.01    0.86    0.01   -0.01    0.89
     0.00   -0.01    0.01    0.02    0.01    0.01    0.01    0.00    0.00    0.00    0.00    0.00
     0.00    0.00    2.00    1.23    0.02   -0.00   -0.00    0.94    0.09   -0.01    0.78    0.13
    -0.01    1.12   -0.01   -0.00    0.01    0.08    0.06    0.01    0.05    0.00    0.00    0.00
     0.00    0.00    0.00    0.00    2.00    1.86   -0.01   -0.00    0.00    1.71   -0.01   -0.00
     1.35    0.00   -0.00    1.42   -0.01    0.00    0.01    0.02    0.02    0.01    0.02    0.00
     0.00    0.00    0.00    0.00    0.00    0.00    2.00    1.86   -0.01   -0.00    0.00    1.76
    -0.01   -0.00    1.30    0.00   -0.00    1.42   -0.01    0.00    0.01    0.02    0.02    0.00
     0.02    0.00    0.00    0.00    0.00    0.00    0.00    0.00    1.07    0.01   -0.00    0.01
     0.04    0.03    0.00    0.00    0.00    0.00    0.00    1.07    0.01   -0.00    0.02    0.04
     0.03    0.00    0.00    0.00    0.00    0.00    1.03    0.01   -0.00    0.02    0.03    0.04
     0.00    0.00    0.00    0.00    0.00



 List of all MOs, ordered by energy, with the most significant SFO gross populations
 ===================================================================================

 Each percentage contribution in the table below corres ponds to the indicated SFO.
 In general, a SFO may be a linear combination of several Fragment Orbitals on the same,
 or on symmetry-related Fragments. Only the first 'member' of such a combination is
 specified here. A full definition of all SFOs is given in an earlier part of the output.
 The numbering of the SFOs in this table does NOT include the Core Orbitals, and starts
 from one for each symmetry representation, as in the SFO definition list earlier.

       E(eV)  Occ       MO           %     SFO (first member)   E(eV)  Occ   Fragment
 -------------------------------------------------------------------------------------

     -20.167  2.00     7 A         30.95%     2 S             -13.609  2.00     1 C
                                   23.59%     1 P:x            -7.067  1.00     2 N
                                    8.15%     2 S             -18.426  2.00     2 N
                                    8.06%     1 S              -6.532  1.00     7 H
                                    6.86%     1 S              -6.532  1.00     6 H
                                    6.84%     1 S              -6.532  1.00     5 H
[...]
      5      H   -0.1529
      6      H   -0.1528
      7      H   -0.1318


Dipole moment vector    (Debye):    -3.53657914    0.16306695    0.01165269
              magnitude (Debye):     3.54035572


AMS application finished. Exiting.
NORMAL TERMINATION
     Total cpu time:       6.95
  Total system time:       0.65
 Total elapsed time:       7.90


 Parallel Execution: Process Information
 ==============================================================================
 Rank   Node Name                              NodeID   MyNodeRank  NodeMaster
    0   adf1                                      0          0          0
    1   adf1                                      0          1         -1
    2   adf1                                      0          2         -1
    3   adf1                                      0          3         -1
    4   adf1                                      0          4         -1
    5   adf1                                      0          5         -1
    6   adf1                                      0          6         -1
    7   adf1                                      0          7         -1
    8   adf1                                      0          8         -1
    9   adf1                                      0          9         -1
   10   adf1                                      0         10         -1
   11   adf1                                      0         11         -1
 ==============================================================================


May use up to 22932MB of RAM as shared memory on node 0
 
NMR
    out    iso    tens
    adfgui
    Atoms 2
    u1k best
    calc all
End

 *******************************************************************************
 *                                                                             *
 *  --------------------------------                                           *
 *   Amsterdam Modeling Suite (AMS)              2020.202                      *
 *  --------------------------------                                           *
 *                                               r90167 2020-12-05             *
 *                                                                             *
 *                                                                             *
 *                              =================                              *
 *                              |               |                              *
 *                              |     N M R     |                              *
 *                              |               |                              *
 *                              =================                              *
 *                                                                             *
 *                                                                             *
 *   Online information and documentation:  https://www.scm.com/support/       *
 *   E-mail:  support@scm.com   info@scm.com                                   *
 *                                                                             *
 *   Scientific publications using AMS results must be properly referenced     *
 *   See the User Manuals (or the web site) for recommended citations          *
 *   The terms and conditions of the End User License Agreement apply to       *
 *   the use of AMS, https://www.scm.com/license-terms/                        *
 *                                                                             *
 **********************  x86_64_linux_intel / intelmpi  ************************
 
 Licensed to: Dr. Miroslav Ilias / Matej Bel University, Department Chemistry, Fac. Natural Sciences / Banska Bystrica / SLOVAKIA
 SCM User ID: u17848
  
 NMR 2020.202  RunTime: Jan14-2021 11:14:11  Nodes: 1  Procs: 12

 Temporary files are created in /tmp/kid_0.1320212287 (0xEF53)


 Communication costs MPI_COMM_WORLD:      2.817 usec per message,   0.0270 usec per 8-byte item
 Communication costs for intra-node:      2.757 usec per message,   0.0268 usec per 8-byte item

                    
                      **********************************    
                      ||******************************||    
                      ||                              ||    
                      ||  ##   ##  ###  ###  ######   ||    
                      ||  ###  ##  ########  ##   ##  ||    
                      ||  #### ##  ## ## ##  ######   ||    
                      ||  ## ####  ##    ##  ## ##    ||    
                      ||  ##  ###  ##    ##  ##  ##   ||    
                      ||  ##   ##  ##    ##  ##   ##  ||    
                      ||                              ||    
                      | ****************************** |    
                      **********************************    
                    
                            Written for ADF by              
                    
                    Stephen K. Wolff & Georg Schreckenbach  
                    
                      The research group of Tom Ziegler     
                            University of Calgary           
                               Alberta, Canada              
                    
                      Speedups, NBO analysis, g-tensors,    
                       full ZORA SO, and other goodies by   
                         Jochen Autschbach, SUNY Buffalo
                    
 =============================
 NMR Chemical shift References
 =============================
  
 Lead:
 G. Schreckenbach, T. Ziegler, J. Phys. Chem. 99 (1995) 606
  
 Speed-ups:
 J. Autschbach, E. Zurek, J. Phys. Chem. A 107 (2003), 4967
  
 Hybrids:
 M. Krykunov, T. Ziegler, E. van Lenthe, Int. J. of Quantum Chem. 109, 1676 (2009)
  
 Spin-orbit coupling:
 S.K. Wolff, T. Ziegler, E. van Lenthe, E.J. Baerends, J. Chem. Phys. 110, 7689 (1999)
 J. Autschbach, Mol. Phys. 111 (2013), 2544
  
 Paramagnetic:
 J. Autschbach, S. Patchkovskii, B. Pritchard, J. Chem. Theory Comput. 7, 2175 (2011)
  
 NBO analysis:
 J. Autschbach, J. Chem. Phys. 128 (2008), 164112
 J. Autschbach, S. Zheng, Magn. Reson. Chem. 46 (2008), S48
  
 Suggested:
 G. Schreckenbach, T. Ziegler, Int. J. Quantum Chem. 60, 753 (1996)
 G. Schreckenbach, T. Ziegler, Int. J. Quantum Chem. 61 (1997) 899
 S.K. Wolff, T. Ziegler, J. Chem. Phys. 109 (1998) 895
  
 =======================
 ESR g-tensor References
 =======================
  
 Lead:
 J. Autschbach, B. Pritchard, Theor. Chem. Acc. 129 (2011), 453
  
 Suggested:
 G. Schreckenbach, T. Ziegler, J. Phys. Chem. A 101, 3388 (1997)
 
################################################################################
 
 
################################################################################
 
 
              <><><><><><><><><><><><><><><><><><><><><><><><><>
 
                 GENERAL ADF INFORMATION:
                 ------------------------
 
                 TITLE:    *** adf ***                                  
 JOB ID:     2033243208
                 NONLXC:   Becke88 LYP                                  
                 SYMMETRY: NOSYM                                        
                  
                 IOPREL:   0
                 ------>  non-rel. (Re MOs)
 
              <><><><><><><><><><><><><><><><><><><><><><><><><>
 
              ==================================================
 
                 NUCLEAR COORDINATES (ANGSTROMS):
                 --------------------------------
 
                 C  (  1):      -1.0611      0.2216      0.0146
                 N  (  2):       0.4560      0.1510      0.0087
                 O  (  3):       1.0713      1.2283     -0.0024
                 O  (  4):       0.9701     -0.9780     -0.0130
                 H  (  5):      -1.3532      1.1478      0.5103
                 H  (  6):      -1.4380     -0.6703      0.5158
                 H  (  7):      -1.3744      0.2325     -1.0340
 
              ==================================================
 
              <><><><><><><><><><><><><><><><><><><><><><><><><>
 
                 NUMBERS:
                 --------
 
                 number of electrons:     32.00
 
                 ---   AOs   ---          ---   MOs   ---
                 ncor =     0             nocc =    16
                 nval =   156             nvir =   121
                 nbas =   156             nmo  =   137
                 naos =   156             nsot =   137
              ==================================================
                  
                 --------------------------
                     ATOM TYPE: C                        
                 --------------------------
                 === BASIS
                   1S    7.68     VALENCE
                   1S    5.00     VALENCE
                   2S    1.28     VALENCE
                   2S    2.10     VALENCE
                   2S    4.60     VALENCE
                   2P    0.82     VALENCE
                   2P    1.48     VALENCE
                   2P    2.94     VALENCE
                   3D    2.20     VALENCE
                   4F    3.30     VALENCE
                  
                 --------------------------
                     ATOM TYPE: N                        
                 --------------------------
                 === BASIS
                   1S    8.74     VALENCE
                   1S    5.90     VALENCE
                   2S    5.15     VALENCE
                   2S    2.50     VALENCE
                   2S    1.50     VALENCE
                   2P    3.68     VALENCE
                   2P    1.88     VALENCE
                   2P    1.00     VALENCE
                   3D    2.20     VALENCE
                   4F    3.30     VALENCE
                  
                 --------------------------
                     ATOM TYPE: O                        
                 --------------------------
                 === BASIS
                   1S    9.80     VALENCE
                   1S    6.80     VALENCE
                   2S    7.58     VALENCE
                   2S    2.88     VALENCE
                   2S    1.72     VALENCE
                   2P    4.08     VALENCE
                   2P    2.08     VALENCE
                   2P    1.12     VALENCE
                   3D    2.00     VALENCE
                   4F    3.00     VALENCE
                  
                 --------------------------
                     ATOM TYPE: H                        
                 --------------------------
                 === BASIS
                   1S    0.69     VALENCE
                   1S    0.92     VALENCE
                   1S    1.58     VALENCE
                   2P    1.25     VALENCE
                   3D    2.50     VALENCE
                  
              ==================================================
              <><><><><><><><><><><><><><><><><><><><><><><><><>
 
                 TENSOR INFORMATION:
                 -------------------
 
                              CALC                   U1K
 
                 paramagnetic  = T     mass-velocity = F
                 diamagnetic   = T     Darwin        = F
                 Fermi-cont.   = F     Zeeman        = F
                 ZORA SO       = F     ZORA SO       = F
                 ZORA SCALE    = F     ZORA SO FULL  = F
                 ZORA SO 1C    = F     E IN U1 SCL   = F
 
              <><><><><><><><><><><><><><><><><><><><><><><><><>
 
              <><><><><><><><><><><><><><><><><><><><><><><><><>
 
                 OUTPUT SWITCHES:
                 ----------------
 
                           ISO = T                F1 = F
                          TENS = T                S1 = F
                           EIG = F                U1 = F
                           AOP = F                B1 = F
                           AOD = F                F  = F
                           AOF = F                 S = F
                          INFO = F              REFS = F
 
              <><><><><><><><><><><><><><><><><><><><><><><><><>
 
              --------------------------------------------------
 
                 CALCULATE THE POTENTIAL? F
                  
                 ---> Potential is already on TAPE10.
                      It will not be re-calculated.
 
              --------------------------------------------------



 ===========================
 L I N E A R   S C A L I N G
 ===========================
  

 Overlap cut-off criterion AO matrix elements:     0.1000000000E-05
################################################################################
********************************************************************************
****  N U C L E U S : N(2)
 
 ADF-GUI atom: N(2)
 Internal NMR numbering of atoms: N(2)
 
 
================================================================================
 
 
===  PARAMAGNETIC NMR SHIELDING TENSORS (ppm)
 
    ===     paramagnetic b^(1) tensor       ===     paramagnetic u^(1) tensor
    -----------------------------------     -----------------------------------
           0.000     0.000     0.000            -653.888     1.641     5.309
           0.000     0.000     0.000               1.641  -603.066    -1.245
           0.000     0.000     0.000               5.309    -1.245  -384.275
    -----------------------------------     -----------------------------------
              isotropic =      0.000                  isotropic =   -547.076

    ===     paramagnetic s^(1) tensor       ===     paramagnetic gauge tensor
    -----------------------------------     -----------------------------------
          60.062     2.280     1.305              -0.458     0.139    -0.061
           2.280    96.403    -0.328               0.139    -0.109     0.046
           1.305    -0.328   139.096              -0.061     0.046    -9.305
    -----------------------------------     -----------------------------------
              isotropic =     98.520                  isotropic =     -3.291

                        ***********************************
                        CARTESIAN AXIS REPRESENTATION

                        ==== total paramagnetic tensor
                        -----------------------------------
                            -594.284     4.060     6.553
                               4.060  -506.772    -1.527
                               6.553    -1.527  -254.485
                        -----------------------------------
                                  isotropic =   -451.847

                        ***********************************
                        -----------------------------------
                        PRINCIPAL AXIS REPRESENTATION

                        ==== Principal components:

                            -594.600  -506.590  -254.350
 
                        ==== Principal Axis System:

                               0.999     0.047     0.019
                              -0.047     0.999    -0.006
                              -0.019     0.005     1.000
                        -----------------------------------
 
================================================================================
 
 
===  DIAMAGNETIC NMR SHIELDING TENSORS (ppm)
 
    ===       diamagnetic core tensor       ===    diamagnetic valence tensor
    -----------------------------------     -----------------------------------
           0.000     0.000     0.000             306.922     0.573    -0.401
           0.000     0.000     0.000               0.573   319.312     0.230
           0.000     0.000     0.000              -0.401     0.230   275.141
    -----------------------------------     -----------------------------------
              isotropic =      0.000                  isotropic =    300.458

                        ***********************************
                        CARTESIAN AXIS REPRESENTATION

                        ==== total diamagnetic tensor
                        -----------------------------------
                             306.922     0.573    -0.401
                               0.573   319.312     0.230
                              -0.401     0.230   275.141
                        -----------------------------------
                                  isotropic =    300.458

                        ***********************************
                        -----------------------------------
                        PRINCIPAL AXIS REPRESENTATION

                        ==== Principal components:

                             275.135   306.900   319.339
 
                        ==== Principal Axis System:

                               0.013     0.999     0.046
                              -0.005    -0.046     0.999
                               1.000    -0.013     0.005
                        -----------------------------------
 
================================================================================
 
 
===  TOTAL NMR SHIELDING TENSOR (ppm)
 
                        ***********************************
                        CARTESIAN AXIS REPRESENTATION

                        ==== total shielding tensor
                        -----------------------------------
                            -287.362     4.633     6.153
                               4.633  -187.460    -1.297
                               6.153    -1.297    20.656
                        -----------------------------------
                                  isotropic =   -151.389

                        ***********************************
                        -----------------------------------
                        PRINCIPAL AXIS REPRESENTATION

                        ==== Principal components:

                            -287.702  -187.251    20.786
 
                        ==== Principal Axis System:

                               0.999     0.047     0.020
                              -0.046     0.999    -0.006
                              -0.020     0.005     1.000
                        -----------------------------------
 *******************************************************************************

                             N M R   E X I T
 NORMAL TERMINATION



 =================
 Timing Statistics
 =================
  
 Total Used :                     CPU=        1.09      System=        0.05     Elapsed=        1.20

 Calls  Section                     ( Mean, Percentage )
 ---------------------------------------------------------------------------------------------------
     3  ><      ................      0.00    0.76             0.00    0.95             0.00    0.73
     1  INIT    ................      0.49   45.44             0.03   47.55             0.57   47.68
     1  RDEIGX  ................      0.04    3.56             0.01   11.23             0.05    3.77
     1  AOF1K   ................      0.23   21.36             0.01   17.90             0.24   20.32
     1  AOPKK   ................      0.05    4.81             0.01   14.83             0.06    5.05
     1  XSIGP   ................      0.00    0.38             0.00    0.20             0.00    0.35
     1  AODKKK  ................      0.26   23.48             0.00    5.35             0.26   21.59
     1  XDV     ................      0.00    0.06             0.00    0.00             0.00    0.05
     1  XSIGD   ................      0.00    0.01             0.00    0.00             0.00    0.01
     1  EXIT PROCEDURE .........      0.00    0.15             0.00    1.99             0.01    0.44


 Currently Open Files (EXIT00)
 ====================

 Unit    Access Format  Status   Type       Ident (file)
 -------------------------------------------------------
   3      SEQ    FORM   TRANSP  NORMAL      LOGFILE
                                          ( /home/milias/Work/projects/open-collection/theoretical_chemistry/projects/nmr_diplomovky/reference_compounds/nitromethane/ams/nmr_shield/nitromethane.nmr_blyp_tz2p.logfile )
