

 Parallel Execution: Process Information
 ==============================================================================
 Rank   Node Name                              NodeID   MyNodeRank  NodeMaster
    0   ubuntu-kch                                0          0          0
    1   ubuntu-kch                                0          1         -1
    2   ubuntu-kch                                0          2         -1
    3   ubuntu-kch                                0          3         -1
 ==============================================================================


May use up to 7570MB of RAM as shared memory on node 0

 *******************************************************************************
 *                                                                             *
 *  --------------------------------                                           *
 *   Amsterdam Modeling Suite (AMS)              2020.202                      *
 *  --------------------------------                                           *
 *                                               r90167 2020-12-05             *
 *                                                                             *
 *                                                                             *
 *                              =================                              *
 *                              |               |                              *
 *                              |     A M S     |                              *
 *                              |               |                              *
 *                              =================                              *
 *                                                                             *
 *                                                                             *
 *   Online information and documentation:  https://www.scm.com/support/       *
 *   E-mail:  support@scm.com   info@scm.com                                   *
 *                                                                             *
 *   Scientific publications using AMS results must be properly referenced     *
 *   See the User Manuals (or the web site) for recommended citations          *
 *   The terms and conditions of the End User License Agreement apply to       *
 *   the use of AMS, https://www.scm.com/license-terms/                        *
 *                                                                             *
 **********************  x86_64_linux_intel / intelmpi  ************************
 
 Licensed to: Dr. Miroslav Ilias / Matej Bel University, Department Chemistry, Fac. Natural Sciences / Banska Bystrica / SLOVAKIA
 SCM User ID: u17848
  
 AMS 2020.202  RunTime: Mar08-2021 17:44:47  Nodes: 1  Procs: 4

 AMS jobname: ams
 AMS jobid  : 1404678736

 Start   directory: /home/milias/work/projects/open-collection/theoretical_chemistry/projects/nmr_diplomovky/reference_compounds/nitromethane/ams/pbe0_tz2p_good/cosmo-chcl3/tmp.milias.1585728.0.noindex/
 Results directory: /home/milias/work/projects/open-collection/theoretical_chemistry/projects/nmr_diplomovky/reference_compounds/nitromethane/ams/pbe0_tz2p_good/cosmo-chcl3/nitromethane.geopt_freq_nmr_shield_pbe0_tz2p_good_cosmo-chcl3.results/
 Scratch directory: /tmp/amstmp_ams_kid0.1404678736/


 Communication costs MPI_COMM_WORLD:      0.260 usec per message,   0.0034 usec per 8-byte item
 Communication costs for intra-node:      0.265 usec per message,   0.0033 usec per 8-byte item

 RNG seed: -1876095617 1115910309 -741916041 -1582439213 -1613576305 -818981433 -122689091 440196554



                        ********************************************************************
                        *  ADF 2020.202  RunTime: Mar08-2021 17:44:47  Nodes: 1  Procs: 4  *
                        ********************************************************************
  
       ***************************
       *  GEOMETRY OPTIMIZATION  *
       ***************************

Optimization Method                    Quasi Newton
Optimization Coordinates               Delocalized Coordinates
Optimize lattice                       F
 
 ------------------------------------------------------
 Convergence criteria (Hartree,Angstrom)
 ------------------------------------------------------
 Maximum gradient               0.001000000000
 Maximum rms gradient           0.000666666667
 Maximum step allowed           0.001000000000
 Maximum rms step allowed       0.000666666667
 Maximum energy change allowe   0.000070000000
 Maximum stress energy allowe   0.000500000000
 
Initial model Hessian                  Automatic Hessian
 
------------------------------------
Quasi-Newton Optimizer Parameters
------------------------------------
Hessian Update Method                  BFGS
Maximum number of steps                  250
First GDIIS cycle                          0
Maximum GDIIS vectors                      0
Trust radius (bohr)                        0.200000
Trust radius varies                        T
Constraints converged at all steps         T
Use projector                              T
 
 Rigid motions settings for: old optimizer
 Atomic rotations (x,y,z):     T T T
 Atomic translations (x,y,z):  T T T
 Tolerance:                   1.000000000000000E-006
 
--------
Geometry
--------
Atoms
  Index Symbol   x (angstrom)   y (angstrom)   z (angstrom)
      1      C     0.65570597     0.00927548    -0.00000000       adf.R=1.700
      2      N    -0.82082840     0.01667056    -0.00000000       adf.R=1.608
      3      O    -1.39012599     0.00515649     1.07216359       adf.R=1.517
      4      O    -1.39012599     0.00515649    -1.07216359       adf.R=1.517
      5      H     0.99611221     0.50074443     0.90389312       adf.R=1.350
      6      H     0.99611221     0.50074443    -0.90389312       adf.R=1.350
      7      H     0.95315001    -1.03774785    -0.00000000       adf.R=1.350
 
Total System Charge             0.00000
Bonding info available!
 
 
----------------
ADF Engine Input
----------------
 
 Basis
 Type TZ2P
 Core None
 End
 Save TAPE10
 XC
 Hybrid PBE0
 End
 Relativity
 Level None
 End
 Solvation
 Surf Delley
 Solv name=Chloroform cav0=0.0 cav1=0.0067639
 Charged method=CONJ
 C-Mat POT
 SCF VAR ALL
 CSMRSP
 End
 NumericalQuality Good
 

 Title: *** (NO TITLE) ***

Number of symmetry operators: 2
Schoenflies symbol:           C(S)
 Using automatic Hessian for delocalized coordinates.
 *** GOStep1 ***

 SOLVATION
-------------------------------------------

  The Delley construction of COSMO surface surface is calculated

       Division Level for Surface Triangles (NDIV)                  3
       Final Division Level for Triangles (NFDIV)                   1
       Radius of the Solvent (RSOL)                           3.17000 angstr
  Dielectric Constant (EPSL)                                  4.80000

       COSMO equation is solved iteratively-               conjugate-gradient

       Maximun of Iterations for Charges (NCIX)                  1000
       Criterion for Charge convergence (CCNV)                1.0E-08

  COSMO charges included variationally in SCF

       COSMO included at every SCF cycle

  Geometry-dependent empirical factor                         0.00000

  C-Matrix calculated in cspmtx

  In cspmtx, C-Matrix calculated using fitted potential

-------------------------------------------



 -------------------------------------------
  COSMO surface
  Area             =          300.136
  Volume           =          425.375
  Number of Points =          841
 -------------------------------------------



 ======================
 RI Hartree-Fock Scheme
 ======================
  
 Fit Set Quality     : GOOD
 Integration Quality : GOOD
 Threshold Quality   : GOOD
 Response Quality    : DEFAULT
 Is Range Separated  :  F
 
 RIHartreeFock Dependency: number of modified vectors:           3
 cosmo_calcen: 0.5 (esolb+esolc) (Hartrees) =   -0.011226

 Solvation energy (screening term,uncorrected) =     -7.044365 kcal/mol

 Solvation energy (dispersion and cavitation terms) =      0.450049 kcal/mol
 Solvation Energy Contributions (Hartrees)
          esola   esolb+esolc
     0.01122591   -0.02245182
 esol last cycle   -0.01122591
  
 Hartree-Fock exchange energy:   -29.1772286444281     
 cosmo_calcen: 0.5 (esolb+esolc) (Hartrees) =   -0.011226

 Solvation energy (screening term,uncorrected) =     -7.044366 kcal/mol

 Solvation energy (dispersion and cavitation terms) =      0.450049 kcal/mol
 Solvation Energy Contributions (Hartrees)
          esola   esolb+esolc
     0.01122591   -0.02245182
 esol last cycle   -0.01122591
  pauli hf:                              0.815101694748494         22.1800           511.48          2140.05
  elstat hf:                            -0.745269012469156        -20.2798          -467.66         -1956.70

 Energy gradients wrt nuclear displacements
 ==========================================

     Atom      Cartesian (a.u./angstrom)
                 X         Y         Z
 ----------------------------------------
     1 C    -0.000754  0.000422  0.000000
     2 N     0.009381  0.000008  0.000000
     3 O    -0.003944 -0.000144 -0.000221
     4 O    -0.003944 -0.000144  0.000221
     5 H    -0.000181 -0.000098 -0.000284
     6 H    -0.000181 -0.000098  0.000284
     7 H    -0.000378  0.000055  0.000000
 ----------------------------------------
 Mulliken charges used for AMS results%charges...
 
----------------------------------------------------------------------
Geometry Convergence after Step   1       (Hartree/Angstrom,Angstrom)
----------------------------------------------------------------------
current energy                               -1.87381810 Hartree
energy change                      -1.87381810     0.00007000    F
constrained gradient max            0.00938165     0.00100000    F
constrained gradient rms            0.00239434     0.00066667    F
gradient max                        0.00938165
gradient rms                        0.00239434
cart. step max                      0.00360801     0.00100000    F
cart. step rms                      0.00160642     0.00066667    F
 
 
--------
Geometry
--------
Atoms
  Index Symbol   x (angstrom)   y (angstrom)   z (angstrom)
      1      C     0.65408342     0.00878474    -0.00000000       adf.R=1.700
      2      N    -0.82326685     0.01573292    -0.00000000       adf.R=1.608
      3      O    -1.38651799     0.00598876     1.07449521       adf.R=1.517
      4      O    -1.38651799     0.00598876    -1.07449521       adf.R=1.517
      5      H     0.99437148     0.50063525     0.90396035       adf.R=1.350
      6      H     0.99437148     0.50063525    -0.90396035       adf.R=1.350
      7      H     0.95347645    -1.03776568    -0.00000000       adf.R=1.350
 
Total System Charge             0.00000
Bonding info available!
 
 *** GOStep2 ***

 SOLVATION
-------------------------------------------

  The Delley construction of COSMO surface surface is calculated

       Division Level for Surface Triangles (NDIV)                  3
       Final Division Level for Triangles (NFDIV)                   1
       Radius of the Solvent (RSOL)                           3.17000 angstr
  Dielectric Constant (EPSL)                                  4.80000

       COSMO equation is solved iteratively-               conjugate-gradient

       Maximun of Iterations for Charges (NCIX)                  1000
       Criterion for Charge convergence (CCNV)                1.0E-08

  COSMO charges included variationally in SCF

       COSMO included at every SCF cycle

  Geometry-dependent empirical factor                         0.00000

  C-Matrix calculated in cspmtx

  In cspmtx, C-Matrix calculated using fitted potential

-------------------------------------------



 -------------------------------------------
  COSMO surface
  Area             =          300.204
  Volume           =          425.463
  Number of Points =          841
 -------------------------------------------



 ======================
 RI Hartree-Fock Scheme
 ======================
  
 Fit Set Quality     : GOOD
 Integration Quality : GOOD
 Threshold Quality   : GOOD
 Response Quality    : DEFAULT
 Is Range Separated  :  F
 
 RIHartreeFock Dependency: number of modified vectors:           3
 cosmo_calcen: 0.5 (esolb+esolc) (Hartrees) =   -0.011072

 Solvation energy (screening term,uncorrected) =     -6.947697 kcal/mol

 Solvation energy (dispersion and cavitation terms) =      0.450151 kcal/mol
 Solvation Energy Contributions (Hartrees)
          esola   esolb+esolc
     0.01107186   -0.02214372
 esol last cycle   -0.01107186
  
 Hartree-Fock exchange energy:   -29.1779838727615     
 cosmo_calcen: 0.5 (esolb+esolc) (Hartrees) =   -0.011072

 Solvation energy (screening term,uncorrected) =     -6.947697 kcal/mol

 Solvation energy (dispersion and cavitation terms) =      0.450151 kcal/mol
 Solvation Energy Contributions (Hartrees)
          esola   esolb+esolc
     0.01107186   -0.02214372
 esol last cycle   -0.01107186
  pauli hf:                              0.815162235334183         22.1817           511.52          2140.21
  elstat hf:                            -0.745806371949582        -20.2944          -468.00         -1958.11

 Energy gradients wrt nuclear displacements
 ==========================================

     Atom      Cartesian (a.u./angstrom)
                 X         Y         Z
 ----------------------------------------
     1 C    -0.001422  0.000374  0.000000
     2 N     0.000566 -0.000972  0.000000
     3 O     0.000631  0.000305  0.000946
     4 O     0.000631  0.000305 -0.000946
     5 H    -0.000134  0.000001 -0.000073
     6 H    -0.000134  0.000001  0.000073
     7 H    -0.000137 -0.000014  0.000000
 ----------------------------------------
 Mulliken charges used for AMS results%charges...

 dE(predicted):    -0.25535E-04, dE(actual):    -0.21553E-04, Trust radius:    0.200000, all in a.u.
 
----------------------------------------------------------------------
Geometry Convergence after Step   2       (Hartree/Angstrom,Angstrom)
----------------------------------------------------------------------
current energy                               -1.87383965 Hartree
energy change                      -0.00002155     0.00007000    T
constrained gradient max            0.00142195     0.00100000    F
constrained gradient rms            0.00054598     0.00066667    T
gradient max                        0.00142195
gradient rms                        0.00054598
cart. step max                      0.00426714     0.00100000    F
cart. step rms                      0.00140252     0.00066667    F
 
 
--------
Geometry
--------
Atoms
  Index Symbol   x (angstrom)   y (angstrom)   z (angstrom)
      1      C     0.65442641     0.00944835    -0.00000000       adf.R=1.700
      2      N    -0.82381968     0.02000006    -0.00000000       adf.R=1.608
      3      O    -1.38740287     0.00360912     1.07389396       adf.R=1.517
      4      O    -1.38740287     0.00360912    -1.07389396       adf.R=1.517
      5      H     0.99613160     0.50049455     0.90395145       adf.R=1.350
      6      H     0.99613160     0.50049455    -0.90395145       adf.R=1.350
      7      H     0.95193580    -1.03765573    -0.00000000       adf.R=1.350
 
Total System Charge             0.00000
Bonding info available!
 
 *** GOStep3 ***

 SOLVATION
-------------------------------------------

  The Delley construction of COSMO surface surface is calculated

       Division Level for Surface Triangles (NDIV)                  3
       Final Division Level for Triangles (NFDIV)                   1
       Radius of the Solvent (RSOL)                           3.17000 angstr
  Dielectric Constant (EPSL)                                  4.80000

       COSMO equation is solved iteratively-               conjugate-gradient

       Maximun of Iterations for Charges (NCIX)                  1000
       Criterion for Charge convergence (CCNV)                1.0E-08

  COSMO charges included variationally in SCF

       COSMO included at every SCF cycle

  Geometry-dependent empirical factor                         0.00000

  C-Matrix calculated in cspmtx

  In cspmtx, C-Matrix calculated using fitted potential

-------------------------------------------



 -------------------------------------------
  COSMO surface
  Area             =          300.056
  Volume           =          425.314
  Number of Points =          841
 -------------------------------------------



 ======================
 RI Hartree-Fock Scheme
 ======================
  
 Fit Set Quality     : GOOD
 Integration Quality : GOOD
 Threshold Quality   : GOOD
 Response Quality    : DEFAULT
 Is Range Separated  :  F
 
 RIHartreeFock Dependency: number of modified vectors:           3
 cosmo_calcen: 0.5 (esolb+esolc) (Hartrees) =   -0.011078

 Solvation energy (screening term,uncorrected) =     -6.951449 kcal/mol

 Solvation energy (dispersion and cavitation terms) =      0.449930 kcal/mol
 Solvation Energy Contributions (Hartrees)
          esola   esolb+esolc
     0.01107784   -0.02215567
 esol last cycle   -0.01107784
  
 Hartree-Fock exchange energy:   -29.1781051911516     
 cosmo_calcen: 0.5 (esolb+esolc) (Hartrees) =   -0.011078

 Solvation energy (screening term,uncorrected) =     -6.951448 kcal/mol

 Solvation energy (dispersion and cavitation terms) =      0.449930 kcal/mol
 Solvation Energy Contributions (Hartrees)
          esola   esolb+esolc
     0.01107784   -0.02215567
 esol last cycle   -0.01107784
  pauli hf:                              0.815303449081986         22.1855           511.61          2140.58
  elstat hf:                            -0.745764057915910        -20.2933          -467.97         -1958.00

 Energy gradients wrt nuclear displacements
 ==========================================

     Atom      Cartesian (a.u./angstrom)
                 X         Y         Z
 ----------------------------------------
     1 C    -0.000934 -0.001072  0.000000
     2 N    -0.000224  0.003754  0.000000
     3 O     0.000496 -0.001302 -0.000181
     4 O     0.000496 -0.001302  0.000181
     5 H    -0.000088 -0.000044 -0.000007
     6 H    -0.000088 -0.000044  0.000007
     7 H     0.000342  0.000009  0.000000
 ----------------------------------------
 Mulliken charges used for AMS results%charges...

 dE(predicted):    -0.43423E-05, dE(actual):     0.62099E-05, Trust radius:    0.020000, all in a.u.
 
----------------------------------------------------------------------
Geometry Convergence after Step   3       (Hartree/Angstrom,Angstrom)
----------------------------------------------------------------------
current energy                               -1.87383344 Hartree
energy change                       0.00000621     0.00007000    T
constrained gradient max            0.00377121     0.00100000    F
constrained gradient rms            0.00098187     0.00066667    F
gradient max                        0.00377121
gradient rms                        0.00098187
cart. step max                      0.00367144     0.00100000    F
cart. step rms                      0.00125884     0.00066667    F
 
 
--------
Geometry
--------
Atoms
  Index Symbol   x (angstrom)   y (angstrom)   z (angstrom)
      1      C     0.65498717     0.00888507    -0.00000000       adf.R=1.700
      2      N    -0.82387791     0.01632863    -0.00000000       adf.R=1.608
      3      O    -1.38871626     0.00564979     1.07325444       adf.R=1.517
      4      O    -1.38871626     0.00564979    -1.07325444       adf.R=1.517
      5      H     0.99592195     0.50056181     0.90393938       adf.R=1.350
      6      H     0.99592195     0.50056181    -0.90393938       adf.R=1.350
      7      H     0.95447936    -1.03763688    -0.00000000       adf.R=1.350
 
Total System Charge             0.00000
Bonding info available!
 
 *** GOStep4 ***

 SOLVATION
-------------------------------------------

  The Delley construction of COSMO surface surface is calculated

       Division Level for Surface Triangles (NDIV)                  3
       Final Division Level for Triangles (NFDIV)                   1
       Radius of the Solvent (RSOL)                           3.17000 angstr
  Dielectric Constant (EPSL)                                  4.80000

       COSMO equation is solved iteratively-               conjugate-gradient

       Maximun of Iterations for Charges (NCIX)                  1000
       Criterion for Charge convergence (CCNV)                1.0E-08

  COSMO charges included variationally in SCF

       COSMO included at every SCF cycle

  Geometry-dependent empirical factor                         0.00000

  C-Matrix calculated in cspmtx

  In cspmtx, C-Matrix calculated using fitted potential

-------------------------------------------



 -------------------------------------------
  COSMO surface
  Area             =          300.265
  Volume           =          425.556
  Number of Points =          841
 -------------------------------------------



 ======================
 RI Hartree-Fock Scheme
 ======================
  
 Fit Set Quality     : GOOD
 Integration Quality : GOOD
 Threshold Quality   : GOOD
 Response Quality    : DEFAULT
 Is Range Separated  :  F
 
 RIHartreeFock Dependency: number of modified vectors:           3
 cosmo_calcen: 0.5 (esolb+esolc) (Hartrees) =   -0.011106

 Solvation energy (screening term,uncorrected) =     -6.969429 kcal/mol

 Solvation energy (dispersion and cavitation terms) =      0.450243 kcal/mol
 Solvation Energy Contributions (Hartrees)
          esola   esolb+esolc
     0.01110649   -0.02221298
 esol last cycle   -0.01110649
  
 Hartree-Fock exchange energy:   -29.1779404813514     
 cosmo_calcen: 0.5 (esolb+esolc) (Hartrees) =   -0.011106

 Solvation energy (screening term,uncorrected) =     -6.969429 kcal/mol

 Solvation energy (dispersion and cavitation terms) =      0.450243 kcal/mol
 Solvation Energy Contributions (Hartrees)
          esola   esolb+esolc
     0.01110649   -0.02221298
 esol last cycle   -0.01110649
  pauli hf:                              0.815280542536795         22.1849           511.60          2140.52
  elstat hf:                            -0.745568761505416        -20.2880          -467.85         -1957.49

 Energy gradients wrt nuclear displacements
 ==========================================

     Atom      Cartesian (a.u./angstrom)
                 X         Y         Z
 ----------------------------------------
     1 C    -0.000404  0.000176  0.000000
     2 N     0.000599 -0.000282  0.000000
     3 O    -0.000300  0.000055 -0.000858
     4 O    -0.000300  0.000055  0.000858
     5 H     0.000138 -0.000012 -0.000010
     6 H     0.000138 -0.000012  0.000010
     7 H     0.000129  0.000020  0.000000
 ----------------------------------------
 Mulliken charges used for AMS results%charges...

 dE(predicted):    -0.96051E-05, dE(actual):    -0.88212E-05, Trust radius:    0.020000, all in a.u.
 
---------------------------------------------------------
Geometry Convergence after Step   4       ** CONVERGED **
---------------------------------------------------------
current energy                               -1.87384226 Hartree
energy change                      -0.00000882     0.00007000    T
constrained gradient max            0.00085756     0.00100000    T
constrained gradient rms            0.00033391     0.00066667    T
gradient max                        0.00085756
gradient rms                        0.00033391
cart. step max                      0.00082244     0.00100000    T
cart. step rms                      0.00040093     0.00066667    T
 
Geometry optimization converged

Optimized geometry:
 
--------
Geometry
--------
Atoms
  Index Symbol   x (angstrom)   y (angstrom)   z (angstrom)
      1      C     0.65498717     0.00888507    -0.00000000       adf.R=1.700
      2      N    -0.82387791     0.01632863    -0.00000000       adf.R=1.608
      3      O    -1.38871626     0.00564979     1.07325444       adf.R=1.517
      4      O    -1.38871626     0.00564979    -1.07325444       adf.R=1.517
      5      H     0.99592195     0.50056181     0.90393938       adf.R=1.350
      6      H     0.99592195     0.50056181    -0.90393938       adf.R=1.350
      7      H     0.95447936    -1.03763688    -0.00000000       adf.R=1.350
 
Total System Charge             0.00000
Bonding info available!
 
Performing a single point calculation on the final geometry ...

 *** adf ***



 ===========================
 A T T A C H E D   F I L E S
 ===========================
  
 Restart/tmp/amstmp_ams_kid0.1404678736/GOStep4.rkf*** GOStep4 ***



 ===============================
 M O D E L   P A R A M E T E R S
 ===============================
  
 DENSITY FUNCTIONAL POTENTIAL (scf)
    Hybrid:                            PBE0                                    == Not Default ==

 SPIN  (restricted / unrestr.)
    Molecule:                          Restricted                               
    Fragments:                         Restricted                               

 OTHER ASPECTS
    Relativistic Corrections:          ---                                     == Not Default ==

    Nuclear Charge Density Model:      Point Charge Nuclei                      
    Core Treatment:                    Frozen Orbital(s)                        

    Hyperfine or Zeeman Interaction:   ---                                      

 SOLVATION
-------------------------------------------

  The Delley construction of COSMO surface surface is calculated

       Division Level for Surface Triangles (NDIV)                  3
       Final Division Level for Triangles (NFDIV)                   1
       Radius of the Solvent (RSOL)                           3.17000 angstr
  Dielectric Constant (EPSL)                                  4.80000

       COSMO equation is solved iteratively-               conjugate-gradient

       Maximun of Iterations for Charges (NCIX)                  1000
       Criterion for Charge convergence (CCNV)                1.0E-08

  COSMO charges included variationally in SCF

       COSMO included at every SCF cycle

  Geometry-dependent empirical factor                         0.00000

  C-Matrix calculated in cspmtx

  In cspmtx, C-Matrix calculated using fitted potential

-------------------------------------------




 ===============
 G E O M E T R Y  ***  3D  Molecule  ***
 ===============
  

 ATOMS
 =====                            X Y Z                    CHARGE                     RADIUS
                                (Angstrom)             Nucl     +Core       At.Mass (Angstrom)
                       --------------------------    ----------------       ------- ----------
    1  C               0.6550    0.0089   -0.0000      6.00      6.00       12.0000    1.7000
    2  N              -0.8239    0.0163   -0.0000      7.00      7.00       14.0031    1.6080
    3  O              -1.3887    0.0056    1.0733      8.00      8.00       15.9949    1.5170
    4  O              -1.3887    0.0056   -1.0733      8.00      8.00       15.9949    1.5170
    5  H               0.9959    0.5006    0.9039      1.00      1.00        1.0078    1.3500
    6  H               0.9959    0.5006   -0.9039      1.00      1.00        1.0078    1.3500
    7  H               0.9545   -1.0376   -0.0000      1.00      1.00        1.0078    1.3500


 FRAGMENTS
 =========                                     Atoms in this Fragment     Cart. coord.s (Angstrom)
                                               -------------------------------------------------------
    1  C                                                 1  C            0.6550    0.0089   -0.0000
    2  N                                                 2  N           -0.8239    0.0163   -0.0000
    3  O                                                 3  O           -1.3887    0.0056    1.0733
    4  O                                                 4  O           -1.3887    0.0056   -1.0733
    5  H                                                 5  H            0.9959    0.5006    0.9039
    6  H                                                 6  H            0.9959    0.5006   -0.9039
    7  H                                                 7  H            0.9545   -1.0376   -0.0000


 Interatomic Distance Matrix (Angstrom)
 --------------------------------------

   1)     0.000
   2)     1.479   0.000
   3)     2.308   1.213   0.000
   4)     2.308   1.213   2.147   0.000
   5)     1.084   2.089   2.441   3.137   0.000
   6)     1.084   2.089   3.137   2.441   1.808   0.000
   7)     1.089   2.067   2.780   2.780   1.785   1.785   0.000

 Min. Distance =    1.0840
 Max. Distance =    3.1370



 =====================================
 S Y M M E T R Y ,   E L E C T R O N S
 =====================================
  
 Symmetry: C(S)

 Irreducible Representations, including subspecies
 -------------------------------------------------
 AA
 AAA

 Symmetry is NOT used when fitting density


 Configuration of Valence Electrons
 ==================================
 ( determined in the SCF procedure )

 Total:   32

 Net Charge: 0 (Nuclei minus Electrons)

 Aufbau principle for MO occupations will be applied through SCF cycle no.     150
 Thereafter, the program will assign electrons to MOs that are spatially
 similar to the occupied MOs in a "reference" cycle ("KeepOrbitals").
 The reference cycle is always the PREVIOUS cycle: it will evolve with
 the SCF procedure.
1
 ***************************************************************************************************



                                      ****************************************
                                      *  B U I L D : (Fragments, Functions)  *
                                      ****************************************
  



 =======
 S F O s  ***  (Symmetrized Fragment Orbitals)  ***
 =======
  
 SFOs are linear combinations of (valence) Fragment Orbitals (FOs), such that the SFOs transform as the
 irreducible representations of the (molecular) symmetry group. Each SFO is therefore characterized by
 an irrep of the molecule and by a few (or only one) generating FOs.
 The SFOs constitute a symmetry-adapted basis for the Fock matrix. The MO eigenvector coefficients in
 this basis provide a direct interpretation of the MOs in terms of Frontier Orbital Theory.

 The SFOs are combined with auxiliary Core Functions (CFs) to ensure orthogonalization on the (frozen)
 Core Orbitals (COs). The Core-orthogonalized SFOs (CSFOs) constitute the true Fock basis.

 The FOs, and hence also the (C)SFOs are combinations of the elementary basis functions (BAS). The basis
 functions that participate in the description of the SFOs depend on the irrep. The indices of the
 involved functions are printed below for each irrep.
 (The complete list of primitive basis functions is printed in another section)

 Total nr. of (C)SFOs (summation over all irreps) :   137

 NOTE: a (C)SFO that is defined as a combination of more than one FO is usually NOT normalized.



                                       === AA ===
 Nr. of SFOs :   81
 Cartesian basis functions that participate in this irrep (total number =   135) :
      1     2     3     4     5     6     7     9    10    12
     13    20    15    16    18    26    29    21    22    24
     27    31    32    33    34    35    36    37    39    40
     42    43    50    45    46    48    56    59    51    52
     54    57    61    91    62    92    63    93    64    94
     65    95    68    98    71   101    74   104    66    67
     96    97    69    70    99   100    72    73   102   103
     80   110    77    79   107   109    75    76    78   105
    106   108    90   120    86    89   116   119    83    85
     88   113   115   118    81    82    84    87   111   112
    114   117   121   133   122   134   123   135   126   138
    124   125   136   137   132   144   129   131   141   143
    127   128   130   139   140   142   145   146   147   148
    149   156   151   152   154

    SFO  (index         Fragment          Generating    Expansion in Fragment Orbitals
  indx  incl.CFs)   Occup   Orb.Energy   FragmentType  Coeff.   Orbital     on Fragment
 --------------------------------------------------------------------------------------
     1       1      2.000     -10.406 au  C             1.00      1 S               1
                        (    -283.169 eV)
     2       2      2.000      -0.583 au  C             1.00      2 S               1
                        (     -15.858 eV)
     3       3       --         0.415 au  C             1.00      3 S               1
                        (      11.281 eV)
     4       4       --         5.555 au  C             1.00      4 S               1
                        (     151.157 eV)
     5       5       --        50.670 au  C             1.00      5 S               1
                        (    1378.798 eV)
     6       6      0.667      -0.186 au  C             1.00      1 P:x             1
                        (      -5.051 eV)
     7       7       --         0.203 au  C             1.00      2 P:x             1
                        (       5.518 eV)
     8       8       --         2.125 au  C             1.00      3 P:x             1
                        (      57.838 eV)
     9       9      0.667      -0.186 au  C             1.00      1 P:y             1
                        (      -5.051 eV)
    10      10       --         0.203 au  C             1.00      2 P:y             1
                        (       5.518 eV)
    11      11       --         2.125 au  C             1.00      3 P:y             1
                        (      57.838 eV)
    12      12       --         1.300 au  C             1.00      1 D:z2            1
                        (      35.363 eV)
    13      13       --         1.300 au  C             1.00      1 D:x2-y2         1
                        (      35.363 eV)
    14      14       --         1.300 au  C             1.00      1 D:xy            1
                        (      35.363 eV)
    15      15       --         4.097 au  C             1.00      1 F:z2x           1
                        (     111.488 eV)
    16      16       --         4.097 au  C             1.00      1 F:z2y           1
                        (     111.488 eV)
    17      17       --         4.097 au  C             1.00      1 F:x             1
                        (     111.488 eV)
    18      18       --         4.097 au  C             1.00      1 F:y             1
                        (     111.488 eV)
    19      19      2.000     -14.556 au  N             1.00      1 S               2
                        (    -396.095 eV)
    20      20      2.000      -0.780 au  N             1.00      2 S               2
                        (     -21.233 eV)
    21      21       --         0.568 au  N             1.00      3 S               2
                        (      15.457 eV)
    22      22       --         7.048 au  N             1.00      4 S               2
                        (     191.781 eV)
    23      23       --        64.537 au  N             1.00      5 S               2
                        (    1756.152 eV)
    24      24      1.000      -0.270 au  N             1.00      1 P:x             2
                        (      -7.358 eV)
    25      25       --         0.326 au  N             1.00      2 P:x             2
                        (       8.876 eV)
    26      26       --         3.419 au  N             1.00      3 P:x             2
                        (      93.045 eV)
    27      27      1.000      -0.270 au  N             1.00      1 P:y             2
                        (      -7.358 eV)
    28      28       --         0.326 au  N             1.00      2 P:y             2
                        (       8.876 eV)
    29      29       --         3.419 au  N             1.00      3 P:y             2
                        (      93.045 eV)
    30      30       --         1.308 au  N             1.00      1 D:z2            2
                        (      35.583 eV)
    31      31       --         1.308 au  N             1.00      1 D:x2-y2         2
                        (      35.583 eV)
    32      32       --         1.308 au  N             1.00      1 D:xy            2
                        (      35.583 eV)
    33      33       --         4.100 au  N             1.00      1 F:z2x           2
                        (     111.573 eV)
    34      34       --         4.100 au  N             1.00      1 F:z2y           2
                        (     111.573 eV)
    35      35       --         4.100 au  N             1.00      1 F:x             2
                        (     111.573 eV)
    36      36       --         4.100 au  N             1.00      1 F:y             2
                        (     111.573 eV)
    37      37      2.000     -19.382 au  O             0.71      1 S               3
                        (    -527.413 eV)               0.71      1 S               4
    38      38      2.000      -0.998 au  O             0.71      2 S               3
                        (     -27.149 eV)               0.71      2 S               4
    39      39       --         0.858 au  O             0.71      3 S               3
                        (      23.351 eV)               0.71      3 S               4
    40      40       --        13.707 au  O             0.71      4 S               3
                        (     372.994 eV)               0.71      4 S               4
    41      41       --       123.922 au  O             0.71      5 S               3
                        (    3372.077 eV)               0.71      5 S               4
    42      42      1.333      -0.366 au  O             0.71      1 P:x             3
                        (      -9.963 eV)               0.71      1 P:x             4
    43      43       --         0.397 au  O             0.71      2 P:x             3
                        (      10.809 eV)               0.71      2 P:x             4
    44      44       --         3.984 au  O             0.71      3 P:x             3
                        (     108.415 eV)               0.71      3 P:x             4
    45      45      1.333      -0.366 au  O             0.71      1 P:y             3
                        (      -9.963 eV)               0.71      1 P:y             4
    46      46       --         0.397 au  O             0.71      2 P:y             3
                        (      10.809 eV)               0.71      2 P:y             4
    47      47       --         3.984 au  O             0.71      3 P:y             3
                        (     108.415 eV)               0.71      3 P:y             4
    48      48      1.333      -0.366 au  O             0.71      1 P:z             3
                        (      -9.963 eV)              -0.71      1 P:z             4
    49      49       --         0.397 au  O             0.71      2 P:z             3
                        (      10.809 eV)              -0.71      2 P:z             4
    50      50       --         3.984 au  O             0.71      3 P:z             3
                        (     108.415 eV)              -0.71      3 P:z             4
    51      51       --         1.128 au  O             0.71      1 D:z2            3
                        (      30.700 eV)               0.71      1 D:z2            4
    52      52       --         1.128 au  O             0.71      1 D:x2-y2         3
                        (      30.700 eV)               0.71      1 D:x2-y2         4
    53      53       --         1.128 au  O             0.71      1 D:xy            3
                        (      30.700 eV)               0.71      1 D:xy            4
    54      54       --         1.128 au  O             0.71      1 D:xz            3
                        (      30.700 eV)              -0.71      1 D:xz            4
    55      55       --         1.128 au  O             0.71      1 D:yz            3
                        (      30.700 eV)              -0.71      1 D:yz            4
    56      56       --         3.446 au  O             0.71      1 F:z3            3
                        (      93.778 eV)              -0.71      1 F:z3            4
    57      57       --         3.446 au  O             0.71      1 F:z             3
                        (      93.778 eV)              -0.71      1 F:z             4
    58      58       --         3.446 au  O             0.71      1 F:xyz           3
                        (      93.778 eV)              -0.71      1 F:xyz           4
    59      59       --         3.446 au  O             0.71      1 F:z2x           3
                        (      93.778 eV)               0.71      1 F:z2x           4
    60      60       --         3.446 au  O             0.71      1 F:z2y           3
                        (      93.778 eV)               0.71      1 F:z2y           4
    61      61       --         3.446 au  O             0.71      1 F:x             3
                        (      93.778 eV)               0.71      1 F:x             4
    62      62       --         3.446 au  O             0.71      1 F:y             3
                        (      93.778 eV)               0.71      1 F:y             4
    63      63      1.000      -0.242 au  H             0.71      1 S               5
                        (      -6.582 eV)               0.71      1 S               6
    64      64       --         0.113 au  H             0.71      2 S               5
                        (       3.073 eV)               0.71      2 S               6
    65      65       --         1.599 au  H             0.71      3 S               5
                        (      43.507 eV)               0.71      3 S               6
    66      66       --         0.445 au  H             0.71      1 P:x             5
                        (      12.103 eV)               0.71      1 P:x             6
    67      67       --         0.445 au  H             0.71      1 P:y             5
                        (      12.103 eV)               0.71      1 P:y             6
    68      68       --         0.445 au  H             0.71      1 P:z             5
                        (      12.103 eV)              -0.71      1 P:z             6
    69      69       --         2.628 au  H             0.71      1 D:z2            5
                        (      71.513 eV)               0.71      1 D:z2            6
    70      70       --         2.628 au  H             0.71      1 D:x2-y2         5
                        (      71.513 eV)               0.71      1 D:x2-y2         6
    71      71       --         2.628 au  H             0.71      1 D:xy            5
                        (      71.513 eV)               0.71      1 D:xy            6
    72      72       --         2.628 au  H             0.71      1 D:xz            5
                        (      71.513 eV)              -0.71      1 D:xz            6
    73      73       --         2.628 au  H             0.71      1 D:yz            5
                        (      71.513 eV)              -0.71      1 D:yz            6
    74      74      1.000      -0.242 au  H             1.00      1 S               7
                        (      -6.582 eV)
    75      75       --         0.113 au  H             1.00      2 S               7
                        (       3.073 eV)
    76      76       --         1.599 au  H             1.00      3 S               7
                        (      43.507 eV)
    77      77       --         0.445 au  H             1.00      1 P:x             7
                        (      12.103 eV)
    78      78       --         0.445 au  H             1.00      1 P:y             7
                        (      12.103 eV)
    79      79       --         2.628 au  H             1.00      1 D:z2            7
                        (      71.513 eV)
    80      80       --         2.628 au  H             1.00      1 D:x2-y2         7
                        (      71.513 eV)
    81      81       --         2.628 au  H             1.00      1 D:xy            7
                        (      71.513 eV)



                                       === AAA ===
 Nr. of SFOs :   56
 Cartesian basis functions that participate in this irrep (total number =   105) :
      8    11    14    17    19    30    23    25    28    38
     41    44    47    49    60    53    55    58    61    91
     62    92    63    93    64    94    65    95    68    98
     71   101    74   104    66    67    96    97    69    70
     99   100    72    73   102   103    80   110    77    79
    107   109    75    76    78   105   106   108    90   120
     86    89   116   119    83    85    88   113   115   118
     81    82    84    87   111   112   114   117   121   133
    122   134   123   135   126   138   124   125   136   137
    132   144   129   131   141   143   127   128   130   139
    140   142   150   153   155

    SFO  (index         Fragment          Generating    Expansion in Fragment Orbitals
  indx  incl.CFs)   Occup   Orb.Energy   FragmentType  Coeff.   Orbital     on Fragment
 --------------------------------------------------------------------------------------
     1       1      0.667      -0.186 au  C             1.00      1 P:z             1
                        (      -5.051 eV)
     2       2       --         0.203 au  C             1.00      2 P:z             1
                        (       5.518 eV)
     3       3       --         2.125 au  C             1.00      3 P:z             1
                        (      57.838 eV)
     4       4       --         1.300 au  C             1.00      1 D:xz            1
                        (      35.363 eV)
     5       5       --         1.300 au  C             1.00      1 D:yz            1
                        (      35.363 eV)
     6       6       --         4.097 au  C             1.00      1 F:z3            1
                        (     111.488 eV)
     7       7       --         4.097 au  C             1.00      1 F:z             1
                        (     111.488 eV)
     8       8       --         4.097 au  C             1.00      1 F:xyz           1
                        (     111.488 eV)
     9       9      1.000      -0.270 au  N             1.00      1 P:z             2
                        (      -7.358 eV)
    10      10       --         0.326 au  N             1.00      2 P:z             2
                        (       8.876 eV)
    11      11       --         3.419 au  N             1.00      3 P:z             2
                        (      93.045 eV)
    12      12       --         1.308 au  N             1.00      1 D:xz            2
                        (      35.583 eV)
    13      13       --         1.308 au  N             1.00      1 D:yz            2
                        (      35.583 eV)
    14      14       --         4.100 au  N             1.00      1 F:z3            2
                        (     111.573 eV)
    15      15       --         4.100 au  N             1.00      1 F:z             2
                        (     111.573 eV)
    16      16       --         4.100 au  N             1.00      1 F:xyz           2
                        (     111.573 eV)
    17      17      2.000     -19.382 au  O             0.71      1 S               3
                        (    -527.413 eV)              -0.71      1 S               4
    18      18      2.000      -0.998 au  O             0.71      2 S               3
                        (     -27.149 eV)              -0.71      2 S               4
    19      19       --         0.858 au  O             0.71      3 S               3
                        (      23.351 eV)              -0.71      3 S               4
    20      20       --        13.707 au  O             0.71      4 S               3
                        (     372.994 eV)              -0.71      4 S               4
    21      21       --       123.922 au  O             0.71      5 S               3
                        (    3372.077 eV)              -0.71      5 S               4
    22      22      1.333      -0.366 au  O             0.71      1 P:x             3
                        (      -9.963 eV)              -0.71      1 P:x             4
    23      23       --         0.397 au  O             0.71      2 P:x             3
                        (      10.809 eV)              -0.71      2 P:x             4
    24      24       --         3.984 au  O             0.71      3 P:x             3
                        (     108.415 eV)              -0.71      3 P:x             4
    25      25      1.333      -0.366 au  O             0.71      1 P:y             3
                        (      -9.963 eV)              -0.71      1 P:y             4
    26      26       --         0.397 au  O             0.71      2 P:y             3
                        (      10.809 eV)              -0.71      2 P:y             4
    27      27       --         3.984 au  O             0.71      3 P:y             3
                        (     108.415 eV)              -0.71      3 P:y             4
    28      28      1.333      -0.366 au  O             0.71      1 P:z             3
                        (      -9.963 eV)               0.71      1 P:z             4
    29      29       --         0.397 au  O             0.71      2 P:z             3
                        (      10.809 eV)               0.71      2 P:z             4
    30      30       --         3.984 au  O             0.71      3 P:z             3
                        (     108.415 eV)               0.71      3 P:z             4
    31      31       --         1.128 au  O             0.71      1 D:z2            3
                        (      30.700 eV)              -0.71      1 D:z2            4
    32      32       --         1.128 au  O             0.71      1 D:x2-y2         3
                        (      30.700 eV)              -0.71      1 D:x2-y2         4
    33      33       --         1.128 au  O             0.71      1 D:xy            3
                        (      30.700 eV)              -0.71      1 D:xy            4
    34      34       --         1.128 au  O             0.71      1 D:xz            3
                        (      30.700 eV)               0.71      1 D:xz            4
    35      35       --         1.128 au  O             0.71      1 D:yz            3
                        (      30.700 eV)               0.71      1 D:yz            4
    36      36       --         3.446 au  O             0.71      1 F:z3            3
                        (      93.778 eV)               0.71      1 F:z3            4
    37      37       --         3.446 au  O             0.71      1 F:z             3
                        (      93.778 eV)               0.71      1 F:z             4
    38      38       --         3.446 au  O             0.71      1 F:xyz           3
                        (      93.778 eV)               0.71      1 F:xyz           4
    39      39       --         3.446 au  O             0.71      1 F:z2x           3
                        (      93.778 eV)              -0.71      1 F:z2x           4
    40      40       --         3.446 au  O             0.71      1 F:z2y           3
                        (      93.778 eV)              -0.71      1 F:z2y           4
    41      41       --         3.446 au  O             0.71      1 F:x             3
                        (      93.778 eV)              -0.71      1 F:x             4
    42      42       --         3.446 au  O             0.71      1 F:y             3
                        (      93.778 eV)              -0.71      1 F:y             4
    43      43      1.000      -0.242 au  H             0.71      1 S               5
                        (      -6.582 eV)              -0.71      1 S               6
    44      44       --         0.113 au  H             0.71      2 S               5
                        (       3.073 eV)              -0.71      2 S               6
    45      45       --         1.599 au  H             0.71      3 S               5
                        (      43.507 eV)              -0.71      3 S               6
    46      46       --         0.445 au  H             0.71      1 P:x             5
                        (      12.103 eV)              -0.71      1 P:x             6
    47      47       --         0.445 au  H             0.71      1 P:y             5
                        (      12.103 eV)              -0.71      1 P:y             6
    48      48       --         0.445 au  H             0.71      1 P:z             5
                        (      12.103 eV)               0.71      1 P:z             6
    49      49       --         2.628 au  H             0.71      1 D:z2            5
                        (      71.513 eV)              -0.71      1 D:z2            6
    50      50       --         2.628 au  H             0.71      1 D:x2-y2         5
                        (      71.513 eV)              -0.71      1 D:x2-y2         6
    51      51       --         2.628 au  H             0.71      1 D:xy            5
                        (      71.513 eV)              -0.71      1 D:xy            6
    52      52       --         2.628 au  H             0.71      1 D:xz            5
                        (      71.513 eV)               0.71      1 D:xz            6
    53      53       --         2.628 au  H             0.71      1 D:yz            5
                        (      71.513 eV)               0.71      1 D:yz            6
    54      54       --         0.445 au  H             1.00      1 P:z             7
                        (      12.103 eV)
    55      55       --         2.628 au  H             1.00      1 D:xz            7
                        (      71.513 eV)
    56      56       --         2.628 au  H             1.00      1 D:yz            7
                        (      71.513 eV)



 ================================
 (Slater-type)  F U N C T I O N S  ***  (Basis and Fit)  ***
 ================================
  

 Atom Type    1  (C)
 ==============

 Valence Basis Sets:  10
 -----------------------
   1 S    7.680000
   1 S    5.000000
   2 S    1.280000
   2 S    2.100000
   2 S    4.600000
   2 P    0.820000
   2 P    1.480000
   2 P    2.940000
   3 D    2.200000
   4 F    3.300000

 Charge Fitting Sets (for the computation of the Coulomb Potential):  22
 -----------------------------------------------------------------------
   1 S   15.360000
   2 S   17.530000
   2 S   12.070000
   2 S    8.310000
   2 S    5.730000
   3 S    5.780000
   3 S    4.220000
   3 S    3.080000
   3 S    2.250000
   3 S    1.640000
   2 P    9.880000
   2 P    5.800000
   3 P    5.050000
   3 P    3.230000
   3 P    2.060000
   3 D    7.200000
   3 D    4.400000
   3 D    2.690000
   3 D    1.640000
   4 F    5.400000
   4 F    3.550000
   5 G    4.500000

 Atom Type    2  (N)
 ==============

 Valence Basis Sets:  10
 -----------------------
   1 S    8.740000
   1 S    5.900000
   2 S    5.150000
   2 S    2.500000
   2 S    1.500000
   2 P    3.680000
   2 P    1.880000
   2 P    1.000000
   3 D    2.200000
   4 F    3.300000

 Charge Fitting Sets (for the computation of the Coulomb Potential):  22
 -----------------------------------------------------------------------
   1 S   17.480000
   2 S   20.150000
   2 S   13.990000
   2 S    9.710000
   2 S    6.740000
   3 S    6.860000
   3 S    5.040000
   3 S    3.700000
   3 S    2.720000
   3 S    2.000000
   2 P   11.320000
   2 P    6.730000
   3 P    5.920000
   3 P    3.820000
   3 P    2.460000
   3 D    8.100000
   3 D    5.080000
   3 D    3.190000
   3 D    2.000000
   4 F    5.800000
   4 F    3.600000
   5 G    4.500000

 Atom Type    3  (O)
 ==============

 Valence Basis Sets:  10
 -----------------------
   1 S    9.800000
   1 S    6.800000
   2 S    7.580000
   2 S    2.880000
   2 S    1.720000
   2 P    4.080000
   2 P    2.080000
   2 P    1.120000
   3 D    2.000000
   4 F    3.000000

 Charge Fitting Sets (for the computation of the Coulomb Potential):  22
 -----------------------------------------------------------------------
   1 S   19.600000
   2 S   22.600000
   2 S   15.680000
   2 S   10.890000
   2 S    7.560000
   3 S    7.690000
   3 S    5.650000
   3 S    4.150000
   3 S    3.050000
   3 S    2.240000
   2 P   12.860000
   2 P    7.680000
   3 P    6.780000
   3 P    4.390000
   3 P    2.840000
   3 D    8.800000
   3 D    5.580000
   3 D    3.530000
   3 D    2.240000
   4 F    6.200000
   4 F    3.700000
   5 G    4.500000

 Atom Type    4  (H)
 ==============

 Valence Basis Sets:   5
 -----------------------
   1 S    0.690000
   1 S    0.920000
   1 S    1.580000
   2 P    1.250000
   3 D    2.500000

 Charge Fitting Sets (for the computation of the Coulomb Potential):  11
 -----------------------------------------------------------------------
   1 S    3.160000
   1 S    2.090000
   1 S    1.380000
   2 S    1.500000
   2 P    4.000000
   2 P    2.650000
   2 P    1.750000
   3 D    4.000000
   3 D    2.500000
   4 F    3.000000
   5 G    4.000000


 BAS: List of all Elementary Cartesian Basis Functions
 =====================================================

 The numbering in the list below (to the right of the function characteristics) is referred
 to in print-outs of MO eigenvectors and Mulliken populations in the BAS representation
 (as contrasted to the SFO representation).

 Notes:
 1. The functions are characterized by a polynomial prefactor (powers of x,y,z and r) and
    an exponential decay factor alpha.
 2. Since the basis sets are specific for an atom TYPE, the individual functions occur on
    all atoms of that type.
 3. The word 'Core' in the left margin signals that it is a Core Function (CF) : not a
    degree of freedom in the valence set, but only used to ensure orthogonalization of
    the other valence basis functions on the frozen Core Orbitals.


 (power of) X  Y  Z  R     Alpha  on Atom
            ==========     =====     ==========

 C                                    1
                                  ---------------------------------------------------------------------------
            0  0  0  0     7.680      1
            0  0  0  0     5.000      2
            0  0  0  1     1.280      3
            0  0  0  1     2.100      4
            0  0  0  1     4.600      5
            1  0  0  0     0.820      6
            0  1  0  0     0.820      7
            0  0  1  0     0.820      8
            1  0  0  0     1.480      9
            0  1  0  0     1.480     10
            0  0  1  0     1.480     11
            1  0  0  0     2.940     12
            0  1  0  0     2.940     13
            0  0  1  0     2.940     14
            2  0  0  0     2.200     15
            1  1  0  0     2.200     16
            1  0  1  0     2.200     17
            0  2  0  0     2.200     18
            0  1  1  0     2.200     19
            0  0  2  0     2.200     20
            3  0  0  0     3.300     21
            2  1  0  0     3.300     22
            2  0  1  0     3.300     23
            1  2  0  0     3.300     24
            1  1  1  0     3.300     25
            1  0  2  0     3.300     26
            0  3  0  0     3.300     27
            0  2  1  0     3.300     28
            0  1  2  0     3.300     29
            0  0  3  0     3.300     30

 N                                    2
                                  ---------------------------------------------------------------------------
            0  0  0  0     8.740     31
            0  0  0  0     5.900     32
            0  0  0  1     5.150     33
            0  0  0  1     2.500     34
            0  0  0  1     1.500     35
            1  0  0  0     3.680     36
            0  1  0  0     3.680     37
            0  0  1  0     3.680     38
            1  0  0  0     1.880     39
            0  1  0  0     1.880     40
            0  0  1  0     1.880     41
            1  0  0  0     1.000     42
            0  1  0  0     1.000     43
            0  0  1  0     1.000     44
            2  0  0  0     2.200     45
            1  1  0  0     2.200     46
            1  0  1  0     2.200     47
            0  2  0  0     2.200     48
            0  1  1  0     2.200     49
            0  0  2  0     2.200     50
            3  0  0  0     3.300     51
            2  1  0  0     3.300     52
            2  0  1  0     3.300     53
            1  2  0  0     3.300     54
            1  1  1  0     3.300     55
            1  0  2  0     3.300     56
            0  3  0  0     3.300     57
            0  2  1  0     3.300     58
            0  1  2  0     3.300     59
            0  0  3  0     3.300     60

 O                                    3    4
                                  ---------------------------------------------------------------------------
            0  0  0  0     9.800     61   91
            0  0  0  0     6.800     62   92
            0  0  0  1     7.580     63   93
            0  0  0  1     2.880     64   94
            0  0  0  1     1.720     65   95
            1  0  0  0     4.080     66   96
            0  1  0  0     4.080     67   97
            0  0  1  0     4.080     68   98
            1  0  0  0     2.080     69   99
            0  1  0  0     2.080     70  100
            0  0  1  0     2.080     71  101
            1  0  0  0     1.120     72  102
            0  1  0  0     1.120     73  103
            0  0  1  0     1.120     74  104
            2  0  0  0     2.000     75  105
            1  1  0  0     2.000     76  106
            1  0  1  0     2.000     77  107
            0  2  0  0     2.000     78  108
            0  1  1  0     2.000     79  109
            0  0  2  0     2.000     80  110
            3  0  0  0     3.000     81  111
            2  1  0  0     3.000     82  112
            2  0  1  0     3.000     83  113
            1  2  0  0     3.000     84  114
            1  1  1  0     3.000     85  115
            1  0  2  0     3.000     86  116
            0  3  0  0     3.000     87  117
            0  2  1  0     3.000     88  118
            0  1  2  0     3.000     89  119
            0  0  3  0     3.000     90  120

 H                                    5    6    7
                                  ---------------------------------------------------------------------------
            0  0  0  0     0.690    121  133  145
            0  0  0  0     0.920    122  134  146
            0  0  0  0     1.580    123  135  147
            1  0  0  0     1.250    124  136  148
            0  1  0  0     1.250    125  137  149
            0  0  1  0     1.250    126  138  150
            2  0  0  0     2.500    127  139  151
            1  1  0  0     2.500    128  140  152
            1  0  1  0     2.500    129  141  153
            0  2  0  0     2.500    130  142  154
            0  1  1  0     2.500    131  143  155
            0  0  2  0     2.500    132  144  156

 Total number of charge fitting functions (nprimf)       486
 Total number of Cartesian basis functions (naos)        156
 Total number of Cartesian core functions  (ncos)          0

1
 ***************************************************************************************************



                                              ***********************
                                              *  T E C H N I C A L  *
                                              ***********************
  



 =============================================================
 P A R A L L E L I Z A T I O N  and  V E C T O R I Z A T I O N
 =============================================================
  
 Nr of parallel processes:                                4
 Maximum vector length in NumInt loops:                 128



 =====================
 S C F   U P D A T E S
 =====================
  
 Max. nr. of cycles:                               300
 Convergence criterion:                              0.0000010000
   secondary criterion:                              0.0010000000

 Mix parameter (when DIIS does not apply):           0.2000000000
 Mixed ADIIS+SDIIS will be used                  
    Max number of expansion vectors:                10
    Pure ADIIS when Max([F,P]) is above              0.1000000000
    Pure SDIIS when Max([F,P]) is below              0.0010000000
 Automatic ElectronSmearing (in case of problematic SCF convergence) disabled



 =================
 P R E C I S I O N  ***  (General: NumInt, NeglectFunctionTails, ...)  ***
 =================
  

 NumInt:           Target precision:                 6.0000000000
 -------           Initial precision:                6.0000000000
                   Min. precision (optimization):    6.0000000000

 Neglect Functions:          Basis functions:        0.1000000000E-07
 ------------------          Fit functions:          0.1000000000E-07



 ===========================
 L I N E A R   S C A L I N G
 ===========================
  

 Cut-off radii density fit:                        0.1000000000E-09
 Overlap cut-off criterion AO matrix elements:     0.1000000000E-07
 Cut-offs for Coulomb potential and fitted density:0.1000000000E-09
 Cut-off criterion for Coulomb multipole terms:    0.1000000000E-09
 Progressive Convergence parameter:                 0.000000000    

 Number of elements of the density matrix on this node (used, total):      3270     12246



 ===========================================
 Numerical Integration : Fuzzy Cells (Becke)
 ===========================================
  
 Becke grid quality: GOOD           
  
 Lebedev angular grid order:             min:  11 max:  31
 Nr. of radial points:                   min:  54 max:  61

 Total nr. of points:      89392
 Nr. of blocks:              700
 Block length:               128
 Nr. of dummy points:        208


 Test of Precision of the Numerical Integration Grid
 ===================================================

 Integral of the Total Core Density:                   0.00000000000000


 -------------------------------------------
  COSMO surface
  Area             =          300.265
  Volume           =          425.556
  Number of Points =          841
 -------------------------------------------



 ========================
 Density Fitting (zlmFit)
 ========================
  
 ZlmFit Fit Quality: GOOD           
  
 Max L-expansion:                        min:   8 max:   9
 Nr. of radial interpolation points:     min:  78 max: 108



 ======================
 RI Hartree-Fock Scheme
 ======================
  
 Fit Set Quality     : GOOD
 Integration Quality : GOOD
 Threshold Quality   : GOOD
 Response Quality    : DEFAULT
 Is Range Separated  :  F
 
 RIHartreeFock Dependency: number of modified vectors:           3



 =====
 S C F  ***  ScaSCF  ***
 =====
  
 Initial density matrix is taken from previous geometry

 CYCLE    1
  ***********************************************************
  ** : orbital data taken from :/tmp/amstmp_ams_kid0.1404678736/GOStep4.rkf
  ***********************************************************
 SCF Error: norm([F,P])=      0.054964544870, max([F,P])=      0.018225597615
 orbitals (Q,E):
 ---------------
 AA :1...20          ( 2.00   -19.2401)  ( 2.00   -14.6388)  ( 2.00   -10.3055)  ( 2.00    -1.2822)
                     ( 2.00    -0.8617)  ( 2.00    -0.6540)  ( 2.00    -0.5845)  ( 2.00    -0.5700)
                     ( 2.00    -0.4628)  ( 2.00    -0.3327)  ( 0.00    -0.0705)  ( 0.00     0.0082)
                     ( 0.00     0.0646)  ( 0.00     0.0709)  ( 0.00     0.1490)  ( 0.00     0.1757)
                     ( 0.00     0.2970)  ( 0.00     0.3199)  ( 0.00     0.3378)  ( 0.00     0.3750)
 AAA :1...16         ( 2.00   -19.2401)  ( 2.00    -1.0996)  ( 2.00    -0.5465)  ( 2.00    -0.4803)
                     ( 2.00    -0.3356)  ( 2.00    -0.3145)  ( 0.00     0.0629)  ( 0.00     0.1606)
                     ( 0.00     0.2461)  ( 0.00     0.3715)  ( 0.00     0.4360)  ( 0.00     0.4836)
                     ( 0.00     0.5539)  ( 0.00     0.6504)  ( 0.00     0.8199)  ( 0.00     0.8539)

 CYCLE    2
  SDIIS (wt  0.000):  0.6312  0.3688
 A-DIIS (wt  1.000):  0.6363  0.3637
  DIIS coefficients:  0.6363  0.3637
 SCF Error: norm([F,P])=      0.090069810059, max([F,P])=      0.036932060801
 orbitals (Q,E):
 ---------------
 AA :1...11          ( 2.00   -19.2548)  ( 2.00   -14.6290)  ( 2.00   -10.2897)  ( 2.00    -1.2837)
                     ( 2.00    -0.8529)  ( 2.00    -0.6514)  ( 2.00    -0.5815)  ( 2.00    -0.5707)
                     ( 2.00    -0.4523)  ( 2.00    -0.3387)  ( 0.00    -0.0722)
 AAA :1...7          ( 2.00   -19.2548)  ( 2.00    -1.1041)  ( 2.00    -0.5526)  ( 2.00    -0.4707)
                     ( 2.00    -0.3440)  ( 2.00    -0.3232)  ( 0.00     0.0714)

 CYCLE    3
  SDIIS (wt  0.000):  0.4302  0.1577  0.4121
 A-DIIS (wt  1.000):  0.3076  0.0000  0.6924
  DIIS coefficients:  0.3076  0.0000  0.6924
 SCF Error: norm([F,P])=      0.034181880272, max([F,P])=      0.008687103940
 orbitals (Q,E):
 ---------------
 AA :1...11          ( 2.00   -19.2500)  ( 2.00   -14.6401)  ( 2.00   -10.2864)  ( 2.00    -1.2866)
                     ( 2.00    -0.8513)  ( 2.00    -0.6502)  ( 2.00    -0.5824)  ( 2.00    -0.5706)
                     ( 2.00    -0.4463)  ( 2.00    -0.3403)  ( 0.00    -0.0742)
 AAA :1...7          ( 2.00   -19.2501)  ( 2.00    -1.1061)  ( 2.00    -0.5551)  ( 2.00    -0.4651)
                     ( 2.00    -0.3454)  ( 2.00    -0.3245)  ( 0.00     0.0779)

 CYCLE    4
  SDIIS (wt  0.881): -0.3889  0.1687  1.2202
 A-DIIS (wt  0.119):  0.0000  0.0000  1.0000
  DIIS coefficients: -0.3426  0.1486  1.1940
 SCF Error: norm([F,P])=      0.028422736398, max([F,P])=      0.012795044915
 orbitals (Q,E):
 ---------------
 AA :1...11          ( 2.00   -19.2552)  ( 2.00   -14.6332)  ( 2.00   -10.2808)  ( 2.00    -1.2867)
                     ( 2.00    -0.8472)  ( 2.00    -0.6495)  ( 2.00    -0.5807)  ( 2.00    -0.5695)
                     ( 2.00    -0.4410)  ( 2.00    -0.3427)  ( 0.00    -0.0743)
 AAA :1...7          ( 2.00   -19.2552)  ( 2.00    -1.1076)  ( 2.00    -0.5578)  ( 2.00    -0.4601)
                     ( 2.00    -0.3488)  ( 2.00    -0.3278)  ( 0.00     0.0839)

 CYCLE    5
  SDIIS (wt  0.980): -0.1213 -0.0410  0.5285  0.6338
 A-DIIS (wt  0.020):  0.0000  0.0000  0.0000  1.0000
  DIIS coefficients: -0.1189 -0.0402  0.5181  0.6410
 SCF Error: norm([F,P])=      0.008987938484, max([F,P])=      0.002959282014
 orbitals (Q,E):
 ---------------
 AA :1...11          ( 2.00   -19.2555)  ( 2.00   -14.6371)  ( 2.00   -10.2791)  ( 2.00    -1.2878)
                     ( 2.00    -0.8476)  ( 2.00    -0.6497)  ( 2.00    -0.5816)  ( 2.00    -0.5699)
                     ( 2.00    -0.4410)  ( 2.00    -0.3429)  ( 0.00    -0.0751)
 AAA :1...7          ( 2.00   -19.2556)  ( 2.00    -1.1084)  ( 2.00    -0.5581)  ( 2.00    -0.4600)
                     ( 2.00    -0.3491)  ( 2.00    -0.3279)  ( 0.00     0.0840)

 CYCLE    6
  SDIIS (wt  1.000):  0.0056 -0.0297  0.0179  0.2226  0.7837
  DIIS coefficients:  0.0056 -0.0297  0.0179  0.2226  0.7837
 SCF Error: norm([F,P])=      0.001835827520, max([F,P])=      0.000505331361
 orbitals (Q,E):
 ---------------
 AA :1...11          ( 2.00   -19.2552)  ( 2.00   -14.6364)  ( 2.00   -10.2798)  ( 2.00    -1.2876)
                     ( 2.00    -0.8477)  ( 2.00    -0.6496)  ( 2.00    -0.5814)  ( 2.00    -0.5698)
                     ( 2.00    -0.4411)  ( 2.00    -0.3428)  ( 0.00    -0.0750)
 AAA :1...7          ( 2.00   -19.2553)  ( 2.00    -1.1081)  ( 2.00    -0.5580)  ( 2.00    -0.4601)
                     ( 2.00    -0.3489)  ( 2.00    -0.3278)  ( 0.00     0.0840)

 CYCLE    7
  SDIIS (wt  1.000):  0.0003  0.0017 -0.0072 -0.0019  0.0818  0.9252
  DIIS coefficients:  0.0003  0.0017 -0.0072 -0.0019  0.0818  0.9252
 SCF Error: norm([F,P])=      0.000200149824, max([F,P])=      0.000052844172
 orbitals (Q,E):
 ---------------
 AA :1...11          ( 2.00   -19.2552)  ( 2.00   -14.6364)  ( 2.00   -10.2797)  ( 2.00    -1.2876)
                     ( 2.00    -0.8476)  ( 2.00    -0.6496)  ( 2.00    -0.5814)  ( 2.00    -0.5698)
                     ( 2.00    -0.4410)  ( 2.00    -0.3428)  ( 0.00    -0.0750)
 AAA :1...7          ( 2.00   -19.2553)  ( 2.00    -1.1081)  ( 2.00    -0.5580)  ( 2.00    -0.4600)
                     ( 2.00    -0.3490)  ( 2.00    -0.3278)  ( 0.00     0.0840)

 CYCLE    8
  SDIIS (wt  1.000):  0.0001  0.0008 -0.0021 -0.0042  0.0104  0.2865  0.7086
  DIIS coefficients:  0.0001  0.0008 -0.0021 -0.0042  0.0104  0.2865  0.7086
 SCF Error: norm([F,P])=      0.000046251642, max([F,P])=      0.000015913813
 orbitals (Q,E):
 ---------------
 AA :1...11          ( 2.00   -19.2553)  ( 2.00   -14.6364)  ( 2.00   -10.2797)  ( 2.00    -1.2876)
                     ( 2.00    -0.8476)  ( 2.00    -0.6496)  ( 2.00    -0.5814)  ( 2.00    -0.5698)
                     ( 2.00    -0.4410)  ( 2.00    -0.3428)  ( 0.00    -0.0750)
 AAA :1...7          ( 2.00   -19.2553)  ( 2.00    -1.1081)  ( 2.00    -0.5580)  ( 2.00    -0.4601)
                     ( 2.00    -0.3490)  ( 2.00    -0.3278)  ( 0.00     0.0840)

 CYCLE    9
  SDIIS (wt  1.000):  0.0000 -0.0000 -0.0001 -0.0012 -0.0035  0.0208  0.2335  0.7505
  DIIS coefficients:  0.0000 -0.0000 -0.0001 -0.0012 -0.0035  0.0208  0.2335  0.7505
 SCF Error: norm([F,P])=      0.000013518632, max([F,P])=      0.000003026610
 orbitals (Q,E):
 ---------------
 AA :1...11          ( 2.00   -19.2553)  ( 2.00   -14.6364)  ( 2.00   -10.2797)  ( 2.00    -1.2876)
                     ( 2.00    -0.8476)  ( 2.00    -0.6496)  ( 2.00    -0.5814)  ( 2.00    -0.5698)
                     ( 2.00    -0.4410)  ( 2.00    -0.3428)  ( 0.00    -0.0750)
 AAA :1...7          ( 2.00   -19.2553)  ( 2.00    -1.1081)  ( 2.00    -0.5580)  ( 2.00    -0.4601)
                     ( 2.00    -0.3490)  ( 2.00    -0.3278)  ( 0.00     0.0840)

 CYCLE   10
  SDIIS (wt  1.000):  0.0000 -0.0000  0.0001 -0.0002 -0.0011 -0.0059  0.0197  0.1577  0.8298
  DIIS coefficients:  0.0000 -0.0000  0.0001 -0.0002 -0.0011 -0.0059  0.0197  0.1577  0.8298
 SCF Error: norm([F,P])=      0.000002106512, max([F,P])=      0.000000570446
 orbitals (Q,E):
 ---------------
 AA :1...11          ( 2.00   -19.2553)  ( 2.00   -14.6364)  ( 2.00   -10.2797)  ( 2.00    -1.2876)
                     ( 2.00    -0.8476)  ( 2.00    -0.6496)  ( 2.00    -0.5814)  ( 2.00    -0.5698)
                     ( 2.00    -0.4410)  ( 2.00    -0.3428)  ( 0.00    -0.0750)
 AAA :1...7          ( 2.00   -19.2553)  ( 2.00    -1.1081)  ( 2.00    -0.5580)  ( 2.00    -0.4601)
                     ( 2.00    -0.3490)  ( 2.00    -0.3278)  ( 0.00     0.0840)

 SCF CONVERGED
 cosmo_calcen: 0.5 (esolb+esolc) (Hartrees) =   -0.011106

 Solvation energy (screening term,uncorrected) =     -6.969429 kcal/mol

 Solvation energy (dispersion and cavitation terms) =      0.450243 kcal/mol
 Solvation Energy Contributions (Hartrees)
          esola   esolb+esolc
     0.01110649   -0.02221298
 esol last cycle   -0.01110649

 CYCLE   11
1
 ***************************************************************************************************



                                                *******************
                                                *  R E S U L T S  *
                                                *******************
  
  
 Hartree-Fock exchange energy:   -29.1779404643550     
 *** Using FIT density in Focky
  SDIIS (wt  1.000):  0.0000 -0.0000  0.0000  0.0000  0.0000 -0.0018 -0.0079 -0.0074  0.1236  0.8935
  DIIS coefficients:  0.0000 -0.0000  0.0000  0.0000  0.0000 -0.0018 -0.0079 -0.0074  0.1236  0.8935
 SCF Error: norm([F,P])=      0.000000312959, max([F,P])=      0.000000072692

 Orbital Energies, per Irrep and Spin:
 ======================================
                        Occup              E (au)              E (eV)       Diff (eV) with prev. cycle
                        -----      --------------------        ------       --------------------------
 AA
               1        2.000     -0.19255251367235E+02      -523.962               7.01E-07
               2        2.000     -0.14636442468427E+02      -398.278              -9.13E-07
               3        2.000     -0.10279686337162E+02      -279.724              -1.20E-07
               4        2.000     -0.12875788822932E+01       -35.037              -7.37E-07
               5        2.000     -0.84764413083853E+00       -23.066               3.25E-07
               6        2.000     -0.64962611160708E+00       -17.677               3.52E-08
               7        2.000     -0.58139812709428E+00       -15.821              -2.46E-07
               8        2.000     -0.56983667470227E+00       -15.506              -1.85E-07
               9        2.000     -0.44103162003767E+00       -12.001              -2.27E-07
              10        2.000     -0.34284681884990E+00        -9.329               2.85E-07
              11        0.000     -0.74970983716313E-01        -2.040
              12        0.000      0.29262421740138E-01         0.796
              13        0.000      0.87943084341850E-01         2.393
              14        0.000      0.91796502798405E-01         2.498
              15        0.000      0.17024701903830E+00         4.633
              16        0.000      0.17745962531560E+00         4.829
              17        0.000      0.30894986253386E+00         8.407
              18        0.000      0.31792205805146E+00         8.651
              19        0.000      0.34768510804276E+00         9.461
              20        0.000      0.38877256890428E+00        10.579
 AAA
               1        2.000     -0.19255268208392E+02      -523.963               7.01E-07
               2        2.000     -0.11081004684153E+01       -30.153              -4.54E-07
               3        2.000     -0.55798321411999E+00       -15.183               2.22E-07
               4        2.000     -0.46005017437237E+00       -12.519               9.74E-08
               5        2.000     -0.34896401030814E+00        -9.496              -2.10E-07
               6        2.000     -0.32776093629361E+00        -8.919               1.77E-07
               7        0.000      0.83984941472885E-01         2.285
               8        0.000      0.17828906787812E+00         4.851
               9        0.000      0.24218096721907E+00         6.590
              10        0.000      0.38319211250343E+00        10.427
              11        0.000      0.43958081178023E+00        11.962
              12        0.000      0.48434968803470E+00        13.180
              13        0.000      0.54399828847735E+00        14.803
              14        0.000      0.63561269320576E+00        17.296
              15        0.000      0.83777182273623E+00        22.797
              16        0.000      0.87014659395911E+00        23.678
  
 HOMO :        6 AAA              -0.32776093629361E+00
 LUMO :       11 AA               -0.74970983716313E-01
  


 Orbital Energies, all Irreps
 ========================================

 Irrep        no.  (spin)   Occup              E (au)                E (eV)
 ---------------------------------------------------------------------------
 AAA           1             2.00       -0.19255268208392E+02      -523.9625
 AA            1             2.00       -0.19255251367235E+02      -523.9620
 AA            2             2.00       -0.14636442468427E+02      -398.2779
[...]
 *                                                                             *
 *  --------------------------------                                           *
 *   Amsterdam Modeling Suite (AMS)              2020.202                      *
 *  --------------------------------                                           *
 *                                               r90167 2020-12-05             *
 *                                                                             *
 *                                                                             *
 *                              =================                              *
 *                              |               |                              *
 *                              |     N M R     |                              *
 *                              |               |                              *
 *                              =================                              *
 *                                                                             *
 *                                                                             *
 *   Online information and documentation:  https://www.scm.com/support/       *
 *   E-mail:  support@scm.com   info@scm.com                                   *
 *                                                                             *
 *   Scientific publications using AMS results must be properly referenced     *
 *   See the User Manuals (or the web site) for recommended citations          *
 *   The terms and conditions of the End User License Agreement apply to       *
 *   the use of AMS, https://www.scm.com/license-terms/                        *
 *                                                                             *
 **********************  x86_64_linux_intel / intelmpi  ************************
 
 Licensed to: Dr. Miroslav Ilias / Matej Bel University, Department Chemistry, Fac. Natural Sciences / Banska Bystrica / SLOVAKIA
 SCM User ID: u17848
  
 NMR 2020.202  RunTime: Mar08-2021 18:06:30  Nodes: 1  Procs: 4

 Temporary files are created in /tmp/kid_0.269938265 (0xEF53)


 Communication costs MPI_COMM_WORLD:      0.275 usec per message,   0.0033 usec per 8-byte item
 Communication costs for intra-node:      0.260 usec per message,   0.0033 usec per 8-byte item




 ======================
 RI Hartree-Fock Scheme
 ======================
  
 Fit Set Quality     : GOOD
 Integration Quality : GOOD
 Threshold Quality   : GOOD
 Response Quality    : DEFAULT
 Is Range Separated  :  F
 
 RIHartreeFock Dependency: number of modified vectors:           0
                    
                      **********************************    
                      ||******************************||    
                      ||                              ||    
                      ||  ##   ##  ###  ###  ######   ||    
                      ||  ###  ##  ########  ##   ##  ||    
                      ||  #### ##  ## ## ##  ######   ||    
                      ||  ## ####  ##    ##  ## ##    ||    
                      ||  ##  ###  ##    ##  ##  ##   ||    
                      ||  ##   ##  ##    ##  ##   ##  ||    
                      ||                              ||    
                      | ****************************** |    
                      **********************************    
                    
                            Written for ADF by              
                    
                    Stephen K. Wolff & Georg Schreckenbach  
                    
                      The research group of Tom Ziegler     
                            University of Calgary           
                               Alberta, Canada              
                    
                      Speedups, NBO analysis, g-tensors,    
                       full ZORA SO, and other goodies by   
                         Jochen Autschbach, SUNY Buffalo
                    
 =============================
 NMR Chemical shift References
 =============================
  
 Lead:
 G. Schreckenbach, T. Ziegler, J. Phys. Chem. 99 (1995) 606
  
 Speed-ups:
 J. Autschbach, E. Zurek, J. Phys. Chem. A 107 (2003), 4967
  
 Hybrids:
 M. Krykunov, T. Ziegler, E. van Lenthe, Int. J. of Quantum Chem. 109, 1676 (2009)
  
 Spin-orbit coupling:
 S.K. Wolff, T. Ziegler, E. van Lenthe, E.J. Baerends, J. Chem. Phys. 110, 7689 (1999)
 J. Autschbach, Mol. Phys. 111 (2013), 2544
  
 Paramagnetic:
 J. Autschbach, S. Patchkovskii, B. Pritchard, J. Chem. Theory Comput. 7, 2175 (2011)
  
 NBO analysis:
 J. Autschbach, J. Chem. Phys. 128 (2008), 164112
 J. Autschbach, S. Zheng, Magn. Reson. Chem. 46 (2008), S48
  
 Suggested:
 G. Schreckenbach, T. Ziegler, Int. J. Quantum Chem. 60, 753 (1996)
 G. Schreckenbach, T. Ziegler, Int. J. Quantum Chem. 61 (1997) 899
 S.K. Wolff, T. Ziegler, J. Chem. Phys. 109 (1998) 895
  
 =======================
 ESR g-tensor References
 =======================
  
 Lead:
 J. Autschbach, B. Pritchard, Theor. Chem. Acc. 129 (2011), 453
  
 Suggested:
 G. Schreckenbach, T. Ziegler, J. Phys. Chem. A 101, 3388 (1997)
 
################################################################################
 
 
################################################################################
 
 
              <><><><><><><><><><><><><><><><><><><><><><><><><>
 
                 GENERAL ADF INFORMATION:
                 ------------------------
 
                 TITLE:    *** adf ***                                  
 JOB ID:     1404678736
                 NONLXC:                                                
                 SYMMETRY: C(S)                                         
                  
                 IOPREL:   0
                 ------>  non-rel. (Re MOs)
 
              <><><><><><><><><><><><><><><><><><><><><><><><><>
 
              ==================================================
 
                 NUCLEAR COORDINATES (ANGSTROMS):
                 --------------------------------
 
                 C  (  1):       0.6550      0.0089     -0.0000
                 N  (  2):      -0.8239      0.0163     -0.0000
                 O  (  3):      -1.3887      0.0056      1.0733
                 O  (  4):      -1.3887      0.0056     -1.0733
                 H  (  5):       0.9959      0.5006      0.9039
                 H  (  6):       0.9959      0.5006     -0.9039
                 H  (  7):       0.9545     -1.0376     -0.0000
 
              ==================================================
 
              <><><><><><><><><><><><><><><><><><><><><><><><><>
 
                 NUMBERS:
                 --------
 
                 number of electrons:     32.00
 
                 ---   AOs   ---          ---   MOs   ---
                 ncor =     0             nocc =    16
                 nval =   156             nvir =   121
                 nbas =   156             nmo  =   137
                 naos =   156             nsot =   137
              ==================================================
                  
                 --------------------------
                     ATOM TYPE: C                        
                 --------------------------
                 === BASIS
                   1S    7.68     VALENCE
                   1S    5.00     VALENCE
                   2S    1.28     VALENCE
                   2S    2.10     VALENCE
                   2S    4.60     VALENCE
                   2P    0.82     VALENCE
                   2P    1.48     VALENCE
                   2P    2.94     VALENCE
                   3D    2.20     VALENCE
                   4F    3.30     VALENCE
                  
                 --------------------------
                     ATOM TYPE: N                        
                 --------------------------
                 === BASIS
                   1S    8.74     VALENCE
                   1S    5.90     VALENCE
                   2S    5.15     VALENCE
                   2S    2.50     VALENCE
                   2S    1.50     VALENCE
                   2P    3.68     VALENCE
                   2P    1.88     VALENCE
                   2P    1.00     VALENCE
                   3D    2.20     VALENCE
                   4F    3.30     VALENCE
                  
                 --------------------------
                     ATOM TYPE: O                        
                 --------------------------
                 === BASIS
                   1S    9.80     VALENCE
                   1S    6.80     VALENCE
                   2S    7.58     VALENCE
                   2S    2.88     VALENCE
                   2S    1.72     VALENCE
                   2P    4.08     VALENCE
                   2P    2.08     VALENCE
                   2P    1.12     VALENCE
                   3D    2.00     VALENCE
                   4F    3.00     VALENCE
                  
                 --------------------------
                     ATOM TYPE: H                        
                 --------------------------
                 === BASIS
                   1S    0.69     VALENCE
                   1S    0.92     VALENCE
                   1S    1.58     VALENCE
                   2P    1.25     VALENCE
                   3D    2.50     VALENCE
                  
              ==================================================
              <><><><><><><><><><><><><><><><><><><><><><><><><>
 
                 TENSOR INFORMATION:
                 -------------------
 
                              CALC                   U1K
 
                 paramagnetic  = T     mass-velocity = F
                 diamagnetic   = T     Darwin        = F
                 Fermi-cont.   = F     Zeeman        = F
                 ZORA SO       = F     ZORA SO       = F
                 ZORA SCALE    = F     ZORA SO FULL  = F
                 ZORA SO 1C    = F     E IN U1 SCL   = F
 
              <><><><><><><><><><><><><><><><><><><><><><><><><>
 
              <><><><><><><><><><><><><><><><><><><><><><><><><>
 
                 OUTPUT SWITCHES:
                 ----------------
 
                           ISO = T                F1 = F
                          TENS = T                S1 = F
                           EIG = F                U1 = F
                           AOP = F                B1 = F
                           AOD = F                F  = F
                           AOF = F                 S = F
                          INFO = F              REFS = F
 
              <><><><><><><><><><><><><><><><><><><><><><><><><>
 
              --------------------------------------------------
 
                 CALCULATE THE POTENTIAL? F
                  
                 ---> Potential is already on TAPE10.
                      It will not be re-calculated.
 
              --------------------------------------------------



 ===========================
 L I N E A R   S C A L I N G
 ===========================
  

 Overlap cut-off criterion AO matrix elements:     0.1000000000E-07
 ========================
 STARTING A NEW SCF. Step            1
 CRIT   1.00000000000000     
 CRIT   1.00000000000000     
 CRIT   1.00000000000000     
 ========================
 STARTING A NEW SCF. Step            2
 CRIT   4.74608830649779     
 CRIT   2.64900132174966     
 CRIT   6.45595203093339     
 ========================
 STARTING A NEW SCF. Step            3
 CRIT  0.741284391580475     
 CRIT  0.309562730978199     
 CRIT  0.513471808612371     
 ========================
 STARTING A NEW SCF. Step            4
 CRIT  7.571335584798067E-002
 CRIT  2.986772022581276E-002
 CRIT  3.740601663960613E-002
 ========================
 STARTING A NEW SCF. Step            5
 CRIT  3.390370623118272E-003
 CRIT  6.073295208346831E-003
 CRIT  2.642593998928815E-003
 ========================
 STARTING A NEW SCF. Step            6
 CRIT  2.010364584288690E-004
 CRIT  5.967031965305174E-004
 CRIT  1.309809230651619E-004
 ========================
 STARTING A NEW SCF. Step            7
 CRIT  1.413565977672302E-005
 CRIT  4.074596638121641E-005
 CRIT  7.152949921669371E-006
 ========================
 STARTING A NEW SCF. Step            8
 CRIT  1.463929520333461E-006
 CRIT  2.503123199000623E-006
 CRIT  3.630726798529770E-007
 ========================
 STARTING A NEW SCF. Step            9
 CRIT  1.140381576519526E-007
 CRIT  1.377497908117619E-007
################################################################################
********************************************************************************
****  N U C L E U S : N(2)
 
 ADF-GUI atom: N(2)
 Internal NMR numbering of atoms: N(2)
 
 
================================================================================
 
 
===  PARAMAGNETIC NMR SHIELDING TENSORS (ppm)
 
    ===     paramagnetic b^(1) tensor       ===     paramagnetic u^(1) tensor
    -----------------------------------     -----------------------------------
           0.000     0.000     0.000            -642.694    -3.290    -0.011
           0.000     0.000     0.000              -3.290  -323.776    -0.017
           0.000     0.000     0.000              -0.011    -0.017  -636.681
    -----------------------------------     -----------------------------------
              isotropic =      0.000                  isotropic =   -534.384

    ===     paramagnetic s^(1) tensor       ===     paramagnetic gauge tensor
    -----------------------------------     -----------------------------------
          56.099    -0.656    -0.001              -0.424     0.065    -0.000
          -0.656   119.086     0.000               0.065    -5.311    -0.000
          -0.001     0.000    82.679              -0.000    -0.000    -0.605
    -----------------------------------     -----------------------------------
              isotropic =     85.955                  isotropic =     -2.113

                        ***********************************
                        CARTESIAN AXIS REPRESENTATION

                        ==== total paramagnetic tensor
                        -----------------------------------
                            -587.020    -3.881    -0.011
                              -3.881  -210.000    -0.017
                              -0.011    -0.017  -554.606
                        -----------------------------------
                                  isotropic =   -450.542

                        ***********************************
                        -----------------------------------
                        PRINCIPAL AXIS REPRESENTATION

                        ==== Principal components:

                            -587.060  -554.606  -209.960
 
                        ==== Principal Axis System:

                               1.000    -0.000     0.010
                               0.010     0.000    -1.000
                               0.000     1.000     0.000
                        -----------------------------------
 
================================================================================
 
 
===  DIAMAGNETIC NMR SHIELDING TENSORS (ppm)
 
    ===       diamagnetic core tensor       ===    diamagnetic valence tensor
    -----------------------------------     -----------------------------------
           0.000     0.000     0.000             304.554     0.066    -0.000
           0.000     0.000     0.000               0.066   270.704    -0.000
           0.000     0.000     0.000              -0.000    -0.000   317.725
    -----------------------------------     -----------------------------------
              isotropic =      0.000                  isotropic =    297.661

                        ***********************************
                        CARTESIAN AXIS REPRESENTATION

                        ==== total diamagnetic tensor
                        -----------------------------------
                             304.554     0.066    -0.000
                               0.066   270.704    -0.000
                              -0.000    -0.000   317.725
                        -----------------------------------
                                  isotropic =    297.661

                        ***********************************
                        -----------------------------------
                        PRINCIPAL AXIS REPRESENTATION

                        ==== Principal components:

                             270.704   304.555   317.725
 
                        ==== Principal Axis System:

                               0.002    -1.000    -0.000
                              -1.000    -0.002    -0.000
                              -0.000    -0.000     1.000
                        -----------------------------------
 
================================================================================
 
 
===  TOTAL NMR SHIELDING TENSOR (ppm)
 
                        ***********************************
                        CARTESIAN AXIS REPRESENTATION

                        ==== total shielding tensor
                        -----------------------------------
                            -282.465    -3.815    -0.012
                              -3.815    60.704    -0.017
                              -0.012    -0.017  -236.881
                        -----------------------------------
                                  isotropic =   -152.881

                        ***********************************
                        -----------------------------------
                        PRINCIPAL AXIS REPRESENTATION

                        ==== Principal components:

                            -282.508  -236.881    60.746
 
                        ==== Principal Axis System:

                               1.000    -0.000     0.011
                               0.011     0.000    -1.000
                               0.000     1.000     0.000
                        -----------------------------------
 *******************************************************************************

                             N M R   E X I T
 NORMAL TERMINATION



 =================
 Timing Statistics
 =================
  
 Total Used :                     CPU=       17.85      System=        0.40     Elapsed=       19.12

 Calls  Section                     ( Mean, Percentage )
 ---------------------------------------------------------------------------------------------------
     3  ><      ................      0.00    0.07             0.00    0.56             0.01    0.08
     1  INIT    ................      0.42    2.35             0.00    0.85             0.43    2.24
     1  RDEIGX  ................     10.12   56.71             0.13   32.52            10.73   56.08
     1  AOF1K   ................      0.47    2.62             0.00    0.00             0.47    2.44
     1  AOPKK   ................      6.19   34.67             0.26   64.95             6.84   35.78
     1  XSIGP   ................      0.00    0.00             0.00    0.00             0.00    0.00
     1  AODKKK  ................      0.64    3.57             0.00    0.00             0.64    3.34
     1  XDV     ................      0.00    0.00             0.00    0.00             0.00    0.00
     1  XSIGD   ................      0.00    0.00             0.00    0.00             0.00    0.00
     1  EXIT PROCEDURE .........      0.00    0.00             0.00    1.12             0.01    0.03


 Currently Open Files (EXIT00)
 ====================

 Unit    Access Format  Status   Type       Ident (file)
 -------------------------------------------------------
   3      SEQ    FORM   TRANSP  NORMAL      LOGFILE
                                          ( /home/milias/work/projects/open-collection/theoretical_chemistry/projects/nmr_diplomovky/reference_compounds/nitromethane/ams/pbe0_tz2p_good/cosmo-chcl3/nitromethane.geopt_freq_nmr_shield_pbe0_tz2p_good_cosmo-chcl3.logfile )
