

 Parallel Execution: Process Information
 ==============================================================================
 Rank   Node Name                              NodeID   MyNodeRank  NodeMaster
    0   ubuntu-kch                                0          0          0
    1   ubuntu-kch                                0          1         -1
    2   ubuntu-kch                                0          2         -1
    3   ubuntu-kch                                0          3         -1
 ==============================================================================


May use up to 7570MB of RAM as shared memory on node 0

 *******************************************************************************
 *                                                                             *
 *  --------------------------------                                           *
 *   Amsterdam Modeling Suite (AMS)              2021.105                      *
 *  --------------------------------                                           *
 *                                               r97261 2021-09-16             *
 *                                                                             *
 *                                                                             *
 *                              =================                              *
 *                              |               |                              *
 *                              |     A M S     |                              *
 *                              |               |                              *
 *                              =================                              *
 *                                                                             *
 *                                                                             *
 *   Online information and documentation:  https://www.scm.com/support/       *
 *   E-mail:  support@scm.com   info@scm.com                                   *
 *                                                                             *
 *   Scientific publications using AMS results must be properly referenced     *
 *   See the User Manuals (or the web site) for recommended citations          *
 *   The terms and conditions of the End User License Agreement apply to       *
 *   the use of AMS, https://www.scm.com/license-terms/                        *
 *                                                                             *
 **********************  x86_64_linux_intel / intelmpi  ************************
 
 Licensed to: Dr. Miroslav Ilias / Matej Bel University, Department Chemistry, Fac. Natural Sciences / Banska Bystrica / SLOVAKIA
 SCM User ID: u17848
  
 AMS 2021.105  RunTime: Dec02-2021 13:43:33  ShM Nodes: 1  Procs: 4

 AMS jobname: ams
 AMS jobid  : 1730177000

 Start   directory: /home/milias/work/projects/open-collection/theoretical_chemistry/projects/nmr_diplomovky/derivaty_markerov/derivative_1_Martin/ams/nonrel/nmr_opbe_qz4p-j_good_cosmo-chcl3/tmp.milias.375644.0.noindex/
 Results directory: /home/milias/work/projects/open-collection/theoretical_chemistry/projects/nmr_diplomovky/derivaty_markerov/derivative_1_Martin/ams/nonrel/nmr_opbe_qz4p-j_good_cosmo-chcl3/der1.nmr_opbe_qz4p-j_good_cosmo-chcl3.results/
 Scratch directory: /tmp/amstmp_ams_kid0.1730177000/


 Communication costs MPI_COMM_WORLD:      0.281 usec per message,   0.0050 usec per 8-byte item
 Communication costs for intra-node:     -1.582 usec per message,   0.0054 usec per 8-byte item

 RNG seed: 881966784 1565772158 -912647362 721125657 -743688404 1634185530 -220347656 1908046195



                      ************************************************************************
                      *  ADF 2021.105  RunTime: Dec02-2021 13:43:34  ShM Nodes: 1  Procs: 4  *
                      ************************************************************************
  
       ****************************
       * SINGLE POINT CALCULATION *
       ****************************
 
--------
Geometry
--------
Formula: C12H26NO2PS
Atoms
  Index Symbol   x (angstrom)   y (angstrom)   z (angstrom)
      1      S     3.20636414     1.65525997     1.08676928       adf.R=1.792
      2      P     2.21034788     0.60258942    -0.50040683       adf.R=1.850
      3      O     0.81793151     1.42598402    -0.77163448       adf.R=1.517
      4      O     1.46246874    -0.60483236     0.33733287       adf.R=1.517
      5      C    -0.29217398     0.94650116     0.04140697       adf.R=1.700
      6      C     0.01686248    -0.56935051     0.18410184       adf.R=1.700
      7      C    -0.28104270     1.68722437     1.36854836       adf.R=1.700
      8      C    -1.56414610     1.24970873    -0.72246704       adf.R=1.700
      9      C    -0.33528736    -1.36879759    -1.06098579       adf.R=1.700
     10      C    -0.58733931    -1.21078744     1.41584985       adf.R=1.700
     11      H    -1.17871457     1.45500192     1.94367173       adf.R=1.350
     12      H     0.58830268     1.43284258     1.97644617       adf.R=1.350
     13      H    -0.26626856     2.76067447     1.17623658       adf.R=1.350
     14      H    -1.52110636     0.86559161    -1.74060049       adf.R=1.350
     15      H    -2.42307009     0.80567632    -0.21464800       adf.R=1.350
     16      H    -1.71835661     2.32888885    -0.76540194       adf.R=1.350
     17      H    -1.41591315    -1.46903806    -1.17133776       adf.R=1.350
     18      H     0.06471349    -0.90362213    -1.96398824       adf.R=1.350
     19      H     0.09303899    -2.36785470    -0.96974277       adf.R=1.350
     20      H    -1.67616362    -1.13006109     1.38618478       adf.R=1.350
     21      H    -0.32838980    -2.27024542     1.44164413       adf.R=1.350
     22      H    -0.22480415    -0.74406382     2.33039752       adf.R=1.350
     23      C     4.84353253     1.77313186     0.29217948       adf.R=1.700
     24      C     5.74388590     0.60291831     0.64868127       adf.R=1.700
     25      N     7.05977023     0.73563770     0.04999968       adf.R=1.608
     26      C     7.85824930     1.79655456     0.67294016       adf.R=1.700
     27      C     8.28267301     2.88241477    -0.30082847       adf.R=1.700
     28      C     8.97970304    -0.52334189    -0.89616386       adf.R=1.700
     29      C     7.75919670    -0.54181214     0.00381646       adf.R=1.700
     30      H     4.70825952     1.83570380    -0.78970702       adf.R=1.350
     31      H     5.26066825     2.72278914     0.62930745       adf.R=1.350
     32      H     5.28372995    -0.31234602     0.26629369       adf.R=1.350
     33      H     5.78845304     0.50008064     1.74726166       adf.R=1.350
     34      H     8.05586541    -0.86936578     1.01684633       adf.R=1.350
     35      H     7.05509588    -1.28844071    -0.37213364       adf.R=1.350
     36      H     8.70429804    -0.23807013    -1.91383525       adf.R=1.350
     37      H     9.43469946    -1.51583087    -0.92597600       adf.R=1.350
     38      H     9.73973807     0.17556229    -0.54043226       adf.R=1.350
     39      H     8.74604446     1.35901093     1.14565326       adf.R=1.350
     40      H     7.28523847     2.24874231     1.48960530       adf.R=1.350
     41      H     8.88353922     2.46747573    -1.11230581       adf.R=1.350
     42      H     8.87551341     3.64685552     0.20891708       adf.R=1.350
     43      H     7.41021376     3.36613383    -0.74581028       adf.R=1.350
 
Total System Charge             0.00000
Bonding info available!
 
 
----------------
ADF Engine Input
----------------
 
 Basis
 Type QZ4P-J
 Core None
 End
 Save TAPE10
 XC
 GGA OPBE
 End
 Relativity
 Level None
 End
 Symmetry NOSYM
 Solvation
 Surf Delley
 Solv name=Chloroform cav0=0.0 cav1=0.0067639
 Charged method=CONJ
 C-Mat POT
 SCF VAR ALL
 CSMRSP
 End
 NumericalQuality Good
 

 Title: *** (NO TITLE) ***

 *** adf ***



 ===========================
 A T T A C H E D   F I L E S
 ===========================
  



 ===============================
 M O D E L   P A R A M E T E R S
 ===============================
  
 DENSITY FUNCTIONAL POTENTIAL (scf)
    LDA:                               VWN                                      
    Gradient Corrections:              OPTX PBEc                               == Not Default ==

 SPIN  (restricted / unrestr.)
    Molecule:                          Restricted                               
    Fragments:                         Restricted                               

 OTHER ASPECTS
    Relativistic Corrections:          ---                                     == Not Default ==

    Nuclear Charge Density Model:      Point Charge Nuclei                      
    Core Treatment:                    Frozen Orbital(s)                        

    Hyperfine or Zeeman Interaction:   ---                                      

 SOLVATION
-------------------------------------------

  The Delley construction of COSMO surface surface is calculated

       Division Level for Surface Triangles (NDIV)                  3
       Final Division Level for Triangles (NFDIV)                   1
       Radius of the Solvent (RSOL)                           3.17000 angstr
  Dielectric Constant (EPSL)                                  4.80000

       COSMO equation is solved iteratively-               conjugate-gradient

       Maximun of Iterations for Charges (NCIX)                  1000
       Criterion for Charge convergence (CCNV)                1.0E-08

  COSMO charges included variationally in SCF

       COSMO included at every SCF cycle

  Geometry-dependent empirical factor                         0.00000

  C-Matrix calculated in cspmtx

  In cspmtx, C-Matrix calculated using fitted potential

-------------------------------------------



 Fragment File(s)
 ----------------
 S:
         file : /home/milias/work/projects/open-collection/theoretical_chemistry/projects/nmr_diplomovky/derivaty_markerov/derivative_1_Martin/ams/nonrel/nmr_opbe_qz4p-j_good_cosmo-chcl3/der1.nmr_opbe_qz4p-j_good_cosmo-chcl3.results/t21.31FE5879.S
         jobid: 0
         title: Sulphur (QZ4P-J)
 P:
         file : /home/milias/work/projects/open-collection/theoretical_chemistry/projects/nmr_diplomovky/derivaty_markerov/derivative_1_Martin/ams/nonrel/nmr_opbe_qz4p-j_good_cosmo-chcl3/der1.nmr_opbe_qz4p-j_good_cosmo-chcl3.results/t21.74896B66.P
         jobid: 0
         title: Phosphorus (QZ4P-J)
 O:
         file : /home/milias/work/projects/open-collection/theoretical_chemistry/projects/nmr_diplomovky/derivaty_markerov/derivative_1_Martin/ams/nonrel/nmr_opbe_qz4p-j_good_cosmo-chcl3/der1.nmr_opbe_qz4p-j_good_cosmo-chcl3.results/t21.2CFDEB66.O
         jobid: 0
         title: Oxygen (QZ4P-J)
 C:
         file : /home/milias/work/projects/open-collection/theoretical_chemistry/projects/nmr_diplomovky/derivaty_markerov/derivative_1_Martin/ams/nonrel/nmr_opbe_qz4p-j_good_cosmo-chcl3/der1.nmr_opbe_qz4p-j_good_cosmo-chcl3.results/t21.59EC5843.C
         jobid: 0
         title: Carbon (QZ4P-J)
 H:
         file : /home/milias/work/projects/open-collection/theoretical_chemistry/projects/nmr_diplomovky/derivaty_markerov/derivative_1_Martin/ams/nonrel/nmr_opbe_qz4p-j_good_cosmo-chcl3/der1.nmr_opbe_qz4p-j_good_cosmo-chcl3.results/t21.5804187F.H
         jobid: 0
         title: Hydrogen (QZ4P-J)
 N:
         file : /home/milias/work/projects/open-collection/theoretical_chemistry/projects/nmr_diplomovky/derivaty_markerov/derivative_1_Martin/ams/nonrel/nmr_opbe_qz4p-j_good_cosmo-chcl3/der1.nmr_opbe_qz4p-j_good_cosmo-chcl3.results/t21.5547A5E1.N
         jobid: 0
         title: Nitrogen (QZ4P-J)



 ===============
 G E O M E T R Y  ***  3D  Molecule  ***
 ===============
  

 ATOMS
 =====                            X Y Z                    CHARGE                     RADIUS
                                (Angstrom)             Nucl     +Core       At.Mass (Angstrom)
                       --------------------------    ----------------       ------- ----------
    1  S               3.2064    1.6553    1.0868     16.00     16.00       31.9721    1.7920
    2  P               2.2103    0.6026   -0.5004     15.00     15.00       30.9738    1.8500
    3  O               0.8179    1.4260   -0.7716      8.00      8.00       15.9949    1.5170
    4  O               1.4625   -0.6048    0.3373      8.00      8.00       15.9949    1.5170
    5  C              -0.2922    0.9465    0.0414      6.00      6.00       12.0000    1.7000
    6  C               0.0169   -0.5694    0.1841      6.00      6.00       12.0000    1.7000
    7  C              -0.2810    1.6872    1.3685      6.00      6.00       12.0000    1.7000
    8  C              -1.5641    1.2497   -0.7225      6.00      6.00       12.0000    1.7000
    9  C              -0.3353   -1.3688   -1.0610      6.00      6.00       12.0000    1.7000
   10  C              -0.5873   -1.2108    1.4158      6.00      6.00       12.0000    1.7000
   11  H              -1.1787    1.4550    1.9437      1.00      1.00        1.0078    1.3500
   12  H               0.5883    1.4328    1.9764      1.00      1.00        1.0078    1.3500
   13  H              -0.2663    2.7607    1.1762      1.00      1.00        1.0078    1.3500
   14  H              -1.5211    0.8656   -1.7406      1.00      1.00        1.0078    1.3500
   15  H              -2.4231    0.8057   -0.2146      1.00      1.00        1.0078    1.3500
   16  H              -1.7184    2.3289   -0.7654      1.00      1.00        1.0078    1.3500
   17  H              -1.4159   -1.4690   -1.1713      1.00      1.00        1.0078    1.3500
   18  H               0.0647   -0.9036   -1.9640      1.00      1.00        1.0078    1.3500
   19  H               0.0930   -2.3679   -0.9697      1.00      1.00        1.0078    1.3500
   20  H              -1.6762   -1.1301    1.3862      1.00      1.00        1.0078    1.3500
   21  H              -0.3284   -2.2702    1.4416      1.00      1.00        1.0078    1.3500
   22  H              -0.2248   -0.7441    2.3304      1.00      1.00        1.0078    1.3500
   23  C               4.8435    1.7731    0.2922      6.00      6.00       12.0000    1.7000
   24  C               5.7439    0.6029    0.6487      6.00      6.00       12.0000    1.7000
   25  N               7.0598    0.7356    0.0500      7.00      7.00       14.0031    1.6080
   26  C               7.8582    1.7966    0.6729      6.00      6.00       12.0000    1.7000
   27  C               8.2827    2.8824   -0.3008      6.00      6.00       12.0000    1.7000
   28  C               8.9797   -0.5233   -0.8962      6.00      6.00       12.0000    1.7000
   29  C               7.7592   -0.5418    0.0038      6.00      6.00       12.0000    1.7000
   30  H               4.7083    1.8357   -0.7897      1.00      1.00        1.0078    1.3500
   31  H               5.2607    2.7228    0.6293      1.00      1.00        1.0078    1.3500
   32  H               5.2837   -0.3123    0.2663      1.00      1.00        1.0078    1.3500
   33  H               5.7885    0.5001    1.7473      1.00      1.00        1.0078    1.3500
   34  H               8.0559   -0.8694    1.0168      1.00      1.00        1.0078    1.3500
   35  H               7.0551   -1.2884   -0.3721      1.00      1.00        1.0078    1.3500
   36  H               8.7043   -0.2381   -1.9138      1.00      1.00        1.0078    1.3500
   37  H               9.4347   -1.5158   -0.9260      1.00      1.00        1.0078    1.3500
   38  H               9.7397    0.1756   -0.5404      1.00      1.00        1.0078    1.3500
   39  H               8.7460    1.3590    1.1457      1.00      1.00        1.0078    1.3500
   40  H               7.2852    2.2487    1.4896      1.00      1.00        1.0078    1.3500
   41  H               8.8835    2.4675   -1.1123      1.00      1.00        1.0078    1.3500
   42  H               8.8755    3.6469    0.2089      1.00      1.00        1.0078    1.3500
   43  H               7.4102    3.3661   -0.7458      1.00      1.00        1.0078    1.3500


 FRAGMENTS
 =========                                     Atoms in this Fragment     Cart. coord.s (Angstrom)
                                               -------------------------------------------------------
    1  S                                                 1  S            3.2064    1.6553    1.0868
    2  P                                                 2  P            2.2103    0.6026   -0.5004
    3  O                                                 3  O            0.8179    1.4260   -0.7716
    4  O                                                 4  O            1.4625   -0.6048    0.3373
    5  C                                                 5  C           -0.2922    0.9465    0.0414
    6  C                                                 6  C            0.0169   -0.5694    0.1841
    7  C                                                 7  C           -0.2810    1.6872    1.3685
    8  C                                                 8  C           -1.5641    1.2497   -0.7225
    9  C                                                 9  C           -0.3353   -1.3688   -1.0610
   10  C                                                10  C           -0.5873   -1.2108    1.4158
   11  C                                                23  C            4.8435    1.7731    0.2922
   12  C                                                24  C            5.7439    0.6029    0.6487
   13  C                                                26  C            7.8582    1.7966    0.6729
   14  C                                                27  C            8.2827    2.8824   -0.3008
   15  C                                                28  C            8.9797   -0.5233   -0.8962
   16  C                                                29  C            7.7592   -0.5418    0.0038
   17  H                                                11  H           -1.1787    1.4550    1.9437
   18  H                                                12  H            0.5883    1.4328    1.9764
   19  H                                                13  H           -0.2663    2.7607    1.1762
   20  H                                                14  H           -1.5211    0.8656   -1.7406
   21  H                                                15  H           -2.4231    0.8057   -0.2146
   22  H                                                16  H           -1.7184    2.3289   -0.7654
   23  H                                                17  H           -1.4159   -1.4690   -1.1713
   24  H                                                18  H            0.0647   -0.9036   -1.9640
   25  H                                                19  H            0.0930   -2.3679   -0.9697
   26  H                                                20  H           -1.6762   -1.1301    1.3862
   27  H                                                21  H           -0.3284   -2.2702    1.4416
   28  H                                                22  H           -0.2248   -0.7441    2.3304
   29  H                                                30  H            4.7083    1.8357   -0.7897
   30  H                                                31  H            5.2607    2.7228    0.6293
   31  H                                                32  H            5.2837   -0.3123    0.2663
   32  H                                                33  H            5.7885    0.5001    1.7473
   33  H                                                34  H            8.0559   -0.8694    1.0168
   34  H                                                35  H            7.0551   -1.2884   -0.3721
   35  H                                                36  H            8.7043   -0.2381   -1.9138
   36  H                                                37  H            9.4347   -1.5158   -0.9260
   37  H                                                38  H            9.7397    0.1756   -0.5404
   38  H                                                39  H            8.7460    1.3590    1.1457
   39  H                                                40  H            7.2852    2.2487    1.4896
   40  H                                                41  H            8.8835    2.4675   -1.1123
   41  H                                                42  H            8.8755    3.6469    0.2089
   42  H                                                43  H            7.4102    3.3661   -0.7458
   43  N                                                25  N            7.0598    0.7356    0.0500



 =====================================
 S Y M M E T R Y ,   E L E C T R O N S
 =====================================
  
 Symmetry: NOSYM

 Irreducible Representations, including subspecies
 -------------------------------------------------
 A


 Configuration of Valence Electrons
 ==================================
 ( determined in the SCF procedure )

 Total:   152

 Net Charge: 0 (Nuclei minus Electrons)

 Aufbau principle for MO occupations will be applied through SCF cycle no.     150
 Thereafter, the program will assign electrons to MOs that are spatially
 similar to the occupied MOs in a "reference" cycle ("KeepOrbitals").
 The reference cycle is always the PREVIOUS cycle: it will evolve with
 the SCF procedure.
1
 ***************************************************************************************************



                                      ****************************************
                                      *  B U I L D : (Fragments, Functions)  *
                                      ****************************************
  

 Total nr. of (C)SFOs (summation over all irreps) :  2244

 Specify PRINT SFO in the input file to get a full list

 Nr. of SFOs for ir.rep.           A :  2244



 ================================
 (Slater-type)  F U N C T I O N S  ***  (Basis and Fit)  ***
 ================================
  

 Atom Type    1  (S)
 ==============

 Valence Basis Sets:  34
 -----------------------
   1 S 8000.000000
   1 S 1600.000000
   1 S  400.000000
   1 S  128.000000
   1 S   55.350000
   1 S   19.200000
   1 S   14.350000
   2 S   14.300000
   2 S    6.500000
   2 S    4.700000
   3 S    4.500000
   3 S    2.900000
   3 S    1.950000
   3 S    1.400000
   3 S    0.700000
   2 P  128.000000
   2 P   55.350000
   2 P   19.200000
   2 P   11.150000
   2 P    6.450000
   2 P    4.250000
   3 P    4.250000
   3 P    2.600000
   3 P    1.550000
   3 P    0.980000
   3 D   20.000000
   3 D    8.000000
   3 D    4.000000
   3 D    2.000000
   3 D    1.000000
   4 F   12.500000
   4 F    5.000000
   4 F    2.500000
   4 F    1.250000

 Atom Type    2  (P)
 ==============

 Valence Basis Sets:  33
 -----------------------
   1 S 7500.000000
   1 S 1500.000000
   1 S  375.000000
   1 S  120.000000
   1 S   48.700000
   1 S   17.800000
   1 S   13.350000
   2 S   14.000000
   2 S    5.950000
   2 S    4.250000
   3 S    3.300000
   3 S    2.750000
   3 S    1.800000
   3 S    1.250000
   2 P  120.000000
   2 P   48.700000
   2 P   17.800000
   2 P   10.250000
   2 P    5.900000
   2 P    3.800000
   3 P    3.250000
   3 P    2.250000
   3 P    1.350000
   3 P    0.850000
   3 D   20.000000
   3 D    8.000000
   3 D    4.000000
   3 D    2.000000
   3 D    1.000000
   4 F   12.500000
   4 F    5.000000
   4 F    2.500000
   4 F    1.250000

 Atom Type    3  (O)
 ==============

 Valence Basis Sets:  27
 -----------------------
   1 S 4000.000000
   1 S  800.000000
   1 S  200.000000
   1 S   80.000000
   1 S   32.000000
   1 S   14.800000
   1 S    8.750000
   1 S    6.650000
   2 S    7.100000
   2 S    3.200000
   2 S    2.050000
   2 S    1.500000
   2 S    0.750000
   2 P   80.000000
   2 P   32.000000
   2 P   14.800000
   2 P    5.700000
   2 P    3.050000
   2 P    1.650000
   2 P    1.000000
   3 D   10.000000
   3 D    5.000000
   3 D    2.500000
   3 D    1.500000
   4 F    8.000000
   4 F    4.000000
   4 F    2.000000

 Atom Type    4  (C)
 ==============

 Valence Basis Sets:  26
 -----------------------
   1 S 3000.000000
   1 S  600.000000
   1 S  150.000000
   1 S   60.000000
   1 S   24.000000
   1 S   11.400000
   1 S    6.600000
   1 S    4.850000
   2 S    5.900000
   2 S    2.550000
   2 S    1.650000
   2 S    1.160000
   2 P   60.000000
   2 P   24.000000
   2 P   11.400000
   2 P    5.150000
   2 P    2.400000
   2 P    1.300000
   2 P    0.780000
   3 D   10.000000
   3 D    5.000000
   3 D    2.500000
   3 D    1.500000
   4 F    8.000000
   4 F    4.000000
   4 F    2.000000

 Atom Type    5  (H)
 ==============

 Valence Basis Sets:  16
 -----------------------
   1 S  500.000000
   1 S  100.000000
   1 S   25.000000
   1 S    7.500000
   1 S    3.300000
   1 S    2.000000
   1 S    1.400000
   1 S    1.000000
   1 S    0.710000
   2 P   10.000000
   2 P    4.000000
   2 P    2.000000
   2 P    1.000000
   3 D    5.000000
   3 D    2.500000
   3 D    1.500000

 Atom Type    6  (N)
 ==============

 Valence Basis Sets:  27
 -----------------------
   1 S 3500.000000
   1 S  700.000000
   1 S  175.000000
   1 S   70.000000
   1 S   28.000000
   1 S   12.850000
   1 S    7.650000
   1 S    5.750000
   2 S    6.850000
   2 S    3.200000
   2 S    2.050000
   2 S    1.400000
   2 S    0.700000
   2 P   70.000000
   2 P   28.000000
   2 P   12.850000
   2 P    6.100000
   2 P    2.950000
   2 P    1.600000
   2 P    0.940000
   3 D   10.000000
   3 D    5.000000
   3 D    2.500000
   3 D    1.500000
   4 F    8.000000
   4 F    4.000000
   4 F    2.000000


 BAS: List of all Elementary Cartesian Basis Functions
 =====================================================

 The numbering in the list below (to the right of the function characteristics) is referred
 to in print-outs of MO eigenvectors and Mulliken populations in the BAS representation
 (as contrasted to the SFO representation).

 Notes:
 1. The functions are characterized by a polynomial prefactor (powers of x,y,z and r) and
    an exponential decay factor alpha.
 2. Since the basis sets are specific for an atom TYPE, the individual functions occur on
    all atoms of that type.
 3. The word 'Core' in the left margin signals that it is a Core Function (CF) : not a
    degree of freedom in the valence set, but only used to ensure orthogonalization of
    the other valence basis functions on the frozen Core Orbitals.


 (power of) X  Y  Z  R     Alpha  on Atom
            ==========     =====     ==========

 S                                    1
                                  ---------------------------------------------------------------------------
            0  0  0  0  8000.000      1
            0  0  0  0  1600.000      2
            0  0  0  0   400.000      3
            0  0  0  0   128.000      4
            0  0  0  0    55.350      5
            0  0  0  0    19.200      6
            0  0  0  0    14.350      7
            0  0  0  1    14.300      8
            0  0  0  1     6.500      9
            0  0  0  1     4.700     10
            0  0  0  2     4.500     11
            0  0  0  2     2.900     12
            0  0  0  2     1.950     13
            0  0  0  2     1.400     14
            0  0  0  2     0.700     15
            1  0  0  0   128.000     16
            0  1  0  0   128.000     17
            0  0  1  0   128.000     18
            1  0  0  0    55.350     19
            0  1  0  0    55.350     20
            0  0  1  0    55.350     21
            1  0  0  0    19.200     22
            0  1  0  0    19.200     23
            0  0  1  0    19.200     24
            1  0  0  0    11.150     25
            0  1  0  0    11.150     26
            0  0  1  0    11.150     27
            1  0  0  0     6.450     28
            0  1  0  0     6.450     29
            0  0  1  0     6.450     30
            1  0  0  0     4.250     31
            0  1  0  0     4.250     32
            0  0  1  0     4.250     33
            1  0  0  1     4.250     34
            0  1  0  1     4.250     35
            0  0  1  1     4.250     36
            1  0  0  1     2.600     37
            0  1  0  1     2.600     38
            0  0  1  1     2.600     39
            1  0  0  1     1.550     40
            0  1  0  1     1.550     41
            0  0  1  1     1.550     42
            1  0  0  1     0.980     43
            0  1  0  1     0.980     44
            0  0  1  1     0.980     45
            2  0  0  0    20.000     46
            1  1  0  0    20.000     47
            1  0  1  0    20.000     48
            0  2  0  0    20.000     49
            0  1  1  0    20.000     50
            0  0  2  0    20.000     51
            2  0  0  0     8.000     52
            1  1  0  0     8.000     53
            1  0  1  0     8.000     54
            0  2  0  0     8.000     55
            0  1  1  0     8.000     56
            0  0  2  0     8.000     57
            2  0  0  0     4.000     58
            1  1  0  0     4.000     59
            1  0  1  0     4.000     60
            0  2  0  0     4.000     61
            0  1  1  0     4.000     62
            0  0  2  0     4.000     63
            2  0  0  0     2.000     64
            1  1  0  0     2.000     65
            1  0  1  0     2.000     66
            0  2  0  0     2.000     67
            0  1  1  0     2.000     68
            0  0  2  0     2.000     69
            2  0  0  0     1.000     70
            1  1  0  0     1.000     71
            1  0  1  0     1.000     72
            0  2  0  0     1.000     73
            0  1  1  0     1.000     74
            0  0  2  0     1.000     75
            3  0  0  0    12.500     76
            2  1  0  0    12.500     77
            2  0  1  0    12.500     78
            1  2  0  0    12.500     79
            1  1  1  0    12.500     80
            1  0  2  0    12.500     81
            0  3  0  0    12.500     82
            0  2  1  0    12.500     83
            0  1  2  0    12.500     84
            0  0  3  0    12.500     85
            3  0  0  0     5.000     86
            2  1  0  0     5.000     87
            2  0  1  0     5.000     88
            1  2  0  0     5.000     89
            1  1  1  0     5.000     90
            1  0  2  0     5.000     91
            0  3  0  0     5.000     92
            0  2  1  0     5.000     93
            0  1  2  0     5.000     94
            0  0  3  0     5.000     95
            3  0  0  0     2.500     96
            2  1  0  0     2.500     97
            2  0  1  0     2.500     98
            1  2  0  0     2.500     99
            1  1  1  0     2.500    100
            1  0  2  0     2.500    101
            0  3  0  0     2.500    102
            0  2  1  0     2.500    103
            0  1  2  0     2.500    104
            0  0  3  0     2.500    105
            3  0  0  0     1.250    106
            2  1  0  0     1.250    107
            2  0  1  0     1.250    108
            1  2  0  0     1.250    109
            1  1  1  0     1.250    110
            1  0  2  0     1.250    111
            0  3  0  0     1.250    112
            0  2  1  0     1.250    113
            0  1  2  0     1.250    114
            0  0  3  0     1.250    115

 P                                    2
                                  ---------------------------------------------------------------------------
            0  0  0  0  7500.000    116
            0  0  0  0  1500.000    117
            0  0  0  0   375.000    118
            0  0  0  0   120.000    119
            0  0  0  0    48.700    120
            0  0  0  0    17.800    121
            0  0  0  0    13.350    122
            0  0  0  1    14.000    123
            0  0  0  1     5.950    124
            0  0  0  1     4.250    125
            0  0  0  2     3.300    126
            0  0  0  2     2.750    127
            0  0  0  2     1.800    128
            0  0  0  2     1.250    129
            1  0  0  0   120.000    130
            0  1  0  0   120.000    131
            0  0  1  0   120.000    132
            1  0  0  0    48.700    133
            0  1  0  0    48.700    134
            0  0  1  0    48.700    135
            1  0  0  0    17.800    136
            0  1  0  0    17.800    137
            0  0  1  0    17.800    138
            1  0  0  0    10.250    139
            0  1  0  0    10.250    140
            0  0  1  0    10.250    141
            1  0  0  0     5.900    142
            0  1  0  0     5.900    143
            0  0  1  0     5.900    144
            1  0  0  0     3.800    145
            0  1  0  0     3.800    146
            0  0  1  0     3.800    147
            1  0  0  1     3.250    148
            0  1  0  1     3.250    149
            0  0  1  1     3.250    150
            1  0  0  1     2.250    151
            0  1  0  1     2.250    152
            0  0  1  1     2.250    153
            1  0  0  1     1.350    154
            0  1  0  1     1.350    155
            0  0  1  1     1.350    156
            1  0  0  1     0.850    157
            0  1  0  1     0.850    158
            0  0  1  1     0.850    159
            2  0  0  0    20.000    160
            1  1  0  0    20.000    161
            1  0  1  0    20.000    162
            0  2  0  0    20.000    163
            0  1  1  0    20.000    164
            0  0  2  0    20.000    165
            2  0  0  0     8.000    166
            1  1  0  0     8.000    167
            1  0  1  0     8.000    168
            0  2  0  0     8.000    169
            0  1  1  0     8.000    170
            0  0  2  0     8.000    171
            2  0  0  0     4.000    172
            1  1  0  0     4.000    173
            1  0  1  0     4.000    174
            0  2  0  0     4.000    175
            0  1  1  0     4.000    176
            0  0  2  0     4.000    177
            2  0  0  0     2.000    178
            1  1  0  0     2.000    179
            1  0  1  0     2.000    180
            0  2  0  0     2.000    181
            0  1  1  0     2.000    182
            0  0  2  0     2.000    183
            2  0  0  0     1.000    184
            1  1  0  0     1.000    185
            1  0  1  0     1.000    186
            0  2  0  0     1.000    187
            0  1  1  0     1.000    188
            0  0  2  0     1.000    189
            3  0  0  0    12.500    190
            2  1  0  0    12.500    191
            2  0  1  0    12.500    192
            1  2  0  0    12.500    193
            1  1  1  0    12.500    194
            1  0  2  0    12.500    195
            0  3  0  0    12.500    196
            0  2  1  0    12.500    197
            0  1  2  0    12.500    198
            0  0  3  0    12.500    199
            3  0  0  0     5.000    200
            2  1  0  0     5.000    201
            2  0  1  0     5.000    202
            1  2  0  0     5.000    203
            1  1  1  0     5.000    204
            1  0  2  0     5.000    205
            0  3  0  0     5.000    206
            0  2  1  0     5.000    207
            0  1  2  0     5.000    208
            0  0  3  0     5.000    209
            3  0  0  0     2.500    210
            2  1  0  0     2.500    211
            2  0  1  0     2.500    212
            1  2  0  0     2.500    213
            1  1  1  0     2.500    214
            1  0  2  0     2.500    215
            0  3  0  0     2.500    216
            0  2  1  0     2.500    217
            0  1  2  0     2.500    218
            0  0  3  0     2.500    219
            3  0  0  0     1.250    220
            2  1  0  0     1.250    221
            2  0  1  0     1.250    222
            1  2  0  0     1.250    223
            1  1  1  0     1.250    224
            1  0  2  0     1.250    225
            0  3  0  0     1.250    226
            0  2  1  0     1.250    227
            0  1  2  0     1.250    228
            0  0  3  0     1.250    229

 O                                    3    4
                                  ---------------------------------------------------------------------------
            0  0  0  0  4000.000    230  318
            0  0  0  0   800.000    231  319
            0  0  0  0   200.000    232  320
            0  0  0  0    80.000    233  321
            0  0  0  0    32.000    234  322
            0  0  0  0    14.800    235  323
            0  0  0  0     8.750    236  324
            0  0  0  0     6.650    237  325
            0  0  0  1     7.100    238  326
            0  0  0  1     3.200    239  327
            0  0  0  1     2.050    240  328
            0  0  0  1     1.500    241  329
            0  0  0  1     0.750    242  330
            1  0  0  0    80.000    243  331
            0  1  0  0    80.000    244  332
            0  0  1  0    80.000    245  333
            1  0  0  0    32.000    246  334
            0  1  0  0    32.000    247  335
            0  0  1  0    32.000    248  336
            1  0  0  0    14.800    249  337
            0  1  0  0    14.800    250  338
            0  0  1  0    14.800    251  339
            1  0  0  0     5.700    252  340
            0  1  0  0     5.700    253  341
            0  0  1  0     5.700    254  342
            1  0  0  0     3.050    255  343
            0  1  0  0     3.050    256  344
            0  0  1  0     3.050    257  345
            1  0  0  0     1.650    258  346
            0  1  0  0     1.650    259  347
            0  0  1  0     1.650    260  348
            1  0  0  0     1.000    261  349
            0  1  0  0     1.000    262  350
            0  0  1  0     1.000    263  351
            2  0  0  0    10.000    264  352
            1  1  0  0    10.000    265  353
            1  0  1  0    10.000    266  354
            0  2  0  0    10.000    267  355
            0  1  1  0    10.000    268  356
            0  0  2  0    10.000    269  357
            2  0  0  0     5.000    270  358
            1  1  0  0     5.000    271  359
            1  0  1  0     5.000    272  360
            0  2  0  0     5.000    273  361
            0  1  1  0     5.000    274  362
            0  0  2  0     5.000    275  363
            2  0  0  0     2.500    276  364
            1  1  0  0     2.500    277  365
            1  0  1  0     2.500    278  366
            0  2  0  0     2.500    279  367
            0  1  1  0     2.500    280  368
            0  0  2  0     2.500    281  369
            2  0  0  0     1.500    282  370
            1  1  0  0     1.500    283  371
            1  0  1  0     1.500    284  372
            0  2  0  0     1.500    285  373
            0  1  1  0     1.500    286  374
            0  0  2  0     1.500    287  375
            3  0  0  0     8.000    288  376
            2  1  0  0     8.000    289  377
            2  0  1  0     8.000    290  378
            1  2  0  0     8.000    291  379
            1  1  1  0     8.000    292  380
            1  0  2  0     8.000    293  381
            0  3  0  0     8.000    294  382
            0  2  1  0     8.000    295  383
            0  1  2  0     8.000    296  384
            0  0  3  0     8.000    297  385
            3  0  0  0     4.000    298  386
            2  1  0  0     4.000    299  387
            2  0  1  0     4.000    300  388
            1  2  0  0     4.000    301  389
            1  1  1  0     4.000    302  390
            1  0  2  0     4.000    303  391
            0  3  0  0     4.000    304  392
            0  2  1  0     4.000    305  393
            0  1  2  0     4.000    306  394
            0  0  3  0     4.000    307  395
            3  0  0  0     2.000    308  396
            2  1  0  0     2.000    309  397
            2  0  1  0     2.000    310  398
            1  2  0  0     2.000    311  399
            1  1  1  0     2.000    312  400
            1  0  2  0     2.000    313  401
            0  3  0  0     2.000    314  402
            0  2  1  0     2.000    315  403
            0  1  2  0     2.000    316  404
            0  0  3  0     2.000    317  405

 C                                    5    6    7    8    9   10   11   12   13   14   15   16
                                  ---------------------------------------------------------------------------
            0  0  0  0  3000.000    406  493  580  667  754  841  928 1015 1102 1189 1276 1363
            0  0  0  0   600.000    407  494  581  668  755  842  929 1016 1103 1190 1277 1364
            0  0  0  0   150.000    408  495  582  669  756  843  930 1017 1104 1191 1278 1365
            0  0  0  0    60.000    409  496  583  670  757  844  931 1018 1105 1192 1279 1366
            0  0  0  0    24.000    410  497  584  671  758  845  932 1019 1106 1193 1280 1367
            0  0  0  0    11.400    411  498  585  672  759  846  933 1020 1107 1194 1281 1368
            0  0  0  0     6.600    412  499  586  673  760  847  934 1021 1108 1195 1282 1369
            0  0  0  0     4.850    413  500  587  674  761  848  935 1022 1109 1196 1283 1370
            0  0  0  1     5.900    414  501  588  675  762  849  936 1023 1110 1197 1284 1371
            0  0  0  1     2.550    415  502  589  676  763  850  937 1024 1111 1198 1285 1372
            0  0  0  1     1.650    416  503  590  677  764  851  938 1025 1112 1199 1286 1373
            0  0  0  1     1.160    417  504  591  678  765  852  939 1026 1113 1200 1287 1374
            1  0  0  0    60.000    418  505  592  679  766  853  940 1027 1114 1201 1288 1375
            0  1  0  0    60.000    419  506  593  680  767  854  941 1028 1115 1202 1289 1376
            0  0  1  0    60.000    420  507  594  681  768  855  942 1029 1116 1203 1290 1377
            1  0  0  0    24.000    421  508  595  682  769  856  943 1030 1117 1204 1291 1378
            0  1  0  0    24.000    422  509  596  683  770  857  944 1031 1118 1205 1292 1379
            0  0  1  0    24.000    423  510  597  684  771  858  945 1032 1119 1206 1293 1380
            1  0  0  0    11.400    424  511  598  685  772  859  946 1033 1120 1207 1294 1381
            0  1  0  0    11.400    425  512  599  686  773  860  947 1034 1121 1208 1295 1382
            0  0  1  0    11.400    426  513  600  687  774  861  948 1035 1122 1209 1296 1383
            1  0  0  0     5.150    427  514  601  688  775  862  949 1036 1123 1210 1297 1384
            0  1  0  0     5.150    428  515  602  689  776  863  950 1037 1124 1211 1298 1385
            0  0  1  0     5.150    429  516  603  690  777  864  951 1038 1125 1212 1299 1386
            1  0  0  0     2.400    430  517  604  691  778  865  952 1039 1126 1213 1300 1387
            0  1  0  0     2.400    431  518  605  692  779  866  953 1040 1127 1214 1301 1388
            0  0  1  0     2.400    432  519  606  693  780  867  954 1041 1128 1215 1302 1389
            1  0  0  0     1.300    433  520  607  694  781  868  955 1042 1129 1216 1303 1390
            0  1  0  0     1.300    434  521  608  695  782  869  956 1043 1130 1217 1304 1391
            0  0  1  0     1.300    435  522  609  696  783  870  957 1044 1131 1218 1305 1392
            1  0  0  0     0.780    436  523  610  697  784  871  958 1045 1132 1219 1306 1393
            0  1  0  0     0.780    437  524  611  698  785  872  959 1046 1133 1220 1307 1394
            0  0  1  0     0.780    438  525  612  699  786  873  960 1047 1134 1221 1308 1395
            2  0  0  0    10.000    439  526  613  700  787  874  961 1048 1135 1222 1309 1396
            1  1  0  0    10.000    440  527  614  701  788  875  962 1049 1136 1223 1310 1397
            1  0  1  0    10.000    441  528  615  702  789  876  963 1050 1137 1224 1311 1398
            0  2  0  0    10.000    442  529  616  703  790  877  964 1051 1138 1225 1312 1399
            0  1  1  0    10.000    443  530  617  704  791  878  965 1052 1139 1226 1313 1400
            0  0  2  0    10.000    444  531  618  705  792  879  966 1053 1140 1227 1314 1401
            2  0  0  0     5.000    445  532  619  706  793  880  967 1054 1141 1228 1315 1402
            1  1  0  0     5.000    446  533  620  707  794  881  968 1055 1142 1229 1316 1403
            1  0  1  0     5.000    447  534  621  708  795  882  969 1056 1143 1230 1317 1404
            0  2  0  0     5.000    448  535  622  709  796  883  970 1057 1144 1231 1318 1405
            0  1  1  0     5.000    449  536  623  710  797  884  971 1058 1145 1232 1319 1406
            0  0  2  0     5.000    450  537  624  711  798  885  972 1059 1146 1233 1320 1407
            2  0  0  0     2.500    451  538  625  712  799  886  973 1060 1147 1234 1321 1408
            1  1  0  0     2.500    452  539  626  713  800  887  974 1061 1148 1235 1322 1409
            1  0  1  0     2.500    453  540  627  714  801  888  975 1062 1149 1236 1323 1410
            0  2  0  0     2.500    454  541  628  715  802  889  976 1063 1150 1237 1324 1411
            0  1  1  0     2.500    455  542  629  716  803  890  977 1064 1151 1238 1325 1412
            0  0  2  0     2.500    456  543  630  717  804  891  978 1065 1152 1239 1326 1413
            2  0  0  0     1.500    457  544  631  718  805  892  979 1066 1153 1240 1327 1414
            1  1  0  0     1.500    458  545  632  719  806  893  980 1067 1154 1241 1328 1415
            1  0  1  0     1.500    459  546  633  720  807  894  981 1068 1155 1242 1329 1416
            0  2  0  0     1.500    460  547  634  721  808  895  982 1069 1156 1243 1330 1417
            0  1  1  0     1.500    461  548  635  722  809  896  983 1070 1157 1244 1331 1418
            0  0  2  0     1.500    462  549  636  723  810  897  984 1071 1158 1245 1332 1419
            3  0  0  0     8.000    463  550  637  724  811  898  985 1072 1159 1246 1333 1420
            2  1  0  0     8.000    464  551  638  725  812  899  986 1073 1160 1247 1334 1421
            2  0  1  0     8.000    465  552  639  726  813  900  987 1074 1161 1248 1335 1422
            1  2  0  0     8.000    466  553  640  727  814  901  988 1075 1162 1249 1336 1423
            1  1  1  0     8.000    467  554  641  728  815  902  989 1076 1163 1250 1337 1424
            1  0  2  0     8.000    468  555  642  729  816  903  990 1077 1164 1251 1338 1425
            0  3  0  0     8.000    469  556  643  730  817  904  991 1078 1165 1252 1339 1426
            0  2  1  0     8.000    470  557  644  731  818  905  992 1079 1166 1253 1340 1427
            0  1  2  0     8.000    471  558  645  732  819  906  993 1080 1167 1254 1341 1428
            0  0  3  0     8.000    472  559  646  733  820  907  994 1081 1168 1255 1342 1429
            3  0  0  0     4.000    473  560  647  734  821  908  995 1082 1169 1256 1343 1430
            2  1  0  0     4.000    474  561  648  735  822  909  996 1083 1170 1257 1344 1431
            2  0  1  0     4.000    475  562  649  736  823  910  997 1084 1171 1258 1345 1432
            1  2  0  0     4.000    476  563  650  737  824  911  998 1085 1172 1259 1346 1433
            1  1  1  0     4.000    477  564  651  738  825  912  999 1086 1173 1260 1347 1434
            1  0  2  0     4.000    478  565  652  739  826  913 1000 1087 1174 1261 1348 1435
            0  3  0  0     4.000    479  566  653  740  827  914 1001 1088 1175 1262 1349 1436
            0  2  1  0     4.000    480  567  654  741  828  915 1002 1089 1176 1263 1350 1437
            0  1  2  0     4.000    481  568  655  742  829  916 1003 1090 1177 1264 1351 1438
            0  0  3  0     4.000    482  569  656  743  830  917 1004 1091 1178 1265 1352 1439
            3  0  0  0     2.000    483  570  657  744  831  918 1005 1092 1179 1266 1353 1440
            2  1  0  0     2.000    484  571  658  745  832  919 1006 1093 1180 1267 1354 1441
            2  0  1  0     2.000    485  572  659  746  833  920 1007 1094 1181 1268 1355 1442
            1  2  0  0     2.000    486  573  660  747  834  921 1008 1095 1182 1269 1356 1443
            1  1  1  0     2.000    487  574  661  748  835  922 1009 1096 1183 1270 1357 1444
            1  0  2  0     2.000    488  575  662  749  836  923 1010 1097 1184 1271 1358 1445
            0  3  0  0     2.000    489  576  663  750  837  924 1011 1098 1185 1272 1359 1446
            0  2  1  0     2.000    490  577  664  751  838  925 1012 1099 1186 1273 1360 1447
            0  1  2  0     2.000    491  578  665  752  839  926 1013 1100 1187 1274 1361 1448
            0  0  3  0     2.000    492  579  666  753  840  927 1014 1101 1188 1275 1362 1449

 H                                   17   18   19   20   21   22   23   24   25   26   27   28   29   30   31
                                     32   33   34   35   36   37   38   39   40   41   42
                                  ---------------------------------------------------------------------------
            0  0  0  0   500.000   1450 1489 1528 1567 1606 1645 1684 1723 1762 1801 1840 1879 1918 1957 1996
                                   2035 2074 2113 2152 2191 2230 2269 2308 2347 2386 2425
            0  0  0  0   100.000   1451 1490 1529 1568 1607 1646 1685 1724 1763 1802 1841 1880 1919 1958 1997
                                   2036 2075 2114 2153 2192 2231 2270 2309 2348 2387 2426
            0  0  0  0    25.000   1452 1491 1530 1569 1608 1647 1686 1725 1764 1803 1842 1881 1920 1959 1998
                                   2037 2076 2115 2154 2193 2232 2271 2310 2349 2388 2427
            0  0  0  0     7.500   1453 1492 1531 1570 1609 1648 1687 1726 1765 1804 1843 1882 1921 1960 1999
                                   2038 2077 2116 2155 2194 2233 2272 2311 2350 2389 2428
            0  0  0  0     3.300   1454 1493 1532 1571 1610 1649 1688 1727 1766 1805 1844 1883 1922 1961 2000
                                   2039 2078 2117 2156 2195 2234 2273 2312 2351 2390 2429
            0  0  0  0     2.000   1455 1494 1533 1572 1611 1650 1689 1728 1767 1806 1845 1884 1923 1962 2001
                                   2040 2079 2118 2157 2196 2235 2274 2313 2352 2391 2430
            0  0  0  0     1.400   1456 1495 1534 1573 1612 1651 1690 1729 1768 1807 1846 1885 1924 1963 2002
                                   2041 2080 2119 2158 2197 2236 2275 2314 2353 2392 2431
            0  0  0  0     1.000   1457 1496 1535 1574 1613 1652 1691 1730 1769 1808 1847 1886 1925 1964 2003
                                   2042 2081 2120 2159 2198 2237 2276 2315 2354 2393 2432
            0  0  0  0     0.710   1458 1497 1536 1575 1614 1653 1692 1731 1770 1809 1848 1887 1926 1965 2004
                                   2043 2082 2121 2160 2199 2238 2277 2316 2355 2394 2433
            1  0  0  0    10.000   1459 1498 1537 1576 1615 1654 1693 1732 1771 1810 1849 1888 1927 1966 2005
                                   2044 2083 2122 2161 2200 2239 2278 2317 2356 2395 2434
            0  1  0  0    10.000   1460 1499 1538 1577 1616 1655 1694 1733 1772 1811 1850 1889 1928 1967 2006
                                   2045 2084 2123 2162 2201 2240 2279 2318 2357 2396 2435
            0  0  1  0    10.000   1461 1500 1539 1578 1617 1656 1695 1734 1773 1812 1851 1890 1929 1968 2007
                                   2046 2085 2124 2163 2202 2241 2280 2319 2358 2397 2436
            1  0  0  0     4.000   1462 1501 1540 1579 1618 1657 1696 1735 1774 1813 1852 1891 1930 1969 2008
                                   2047 2086 2125 2164 2203 2242 2281 2320 2359 2398 2437
            0  1  0  0     4.000   1463 1502 1541 1580 1619 1658 1697 1736 1775 1814 1853 1892 1931 1970 2009
                                   2048 2087 2126 2165 2204 2243 2282 2321 2360 2399 2438
            0  0  1  0     4.000   1464 1503 1542 1581 1620 1659 1698 1737 1776 1815 1854 1893 1932 1971 2010
                                   2049 2088 2127 2166 2205 2244 2283 2322 2361 2400 2439
            1  0  0  0     2.000   1465 1504 1543 1582 1621 1660 1699 1738 1777 1816 1855 1894 1933 1972 2011
                                   2050 2089 2128 2167 2206 2245 2284 2323 2362 2401 2440
            0  1  0  0     2.000   1466 1505 1544 1583 1622 1661 1700 1739 1778 1817 1856 1895 1934 1973 2012
                                   2051 2090 2129 2168 2207 2246 2285 2324 2363 2402 2441
            0  0  1  0     2.000   1467 1506 1545 1584 1623 1662 1701 1740 1779 1818 1857 1896 1935 1974 2013
                                   2052 2091 2130 2169 2208 2247 2286 2325 2364 2403 2442
            1  0  0  0     1.000   1468 1507 1546 1585 1624 1663 1702 1741 1780 1819 1858 1897 1936 1975 2014
                                   2053 2092 2131 2170 2209 2248 2287 2326 2365 2404 2443
            0  1  0  0     1.000   1469 1508 1547 1586 1625 1664 1703 1742 1781 1820 1859 1898 1937 1976 2015
                                   2054 2093 2132 2171 2210 2249 2288 2327 2366 2405 2444
            0  0  1  0     1.000   1470 1509 1548 1587 1626 1665 1704 1743 1782 1821 1860 1899 1938 1977 2016
                                   2055 2094 2133 2172 2211 2250 2289 2328 2367 2406 2445
            2  0  0  0     5.000   1471 1510 1549 1588 1627 1666 1705 1744 1783 1822 1861 1900 1939 1978 2017
                                   2056 2095 2134 2173 2212 2251 2290 2329 2368 2407 2446
            1  1  0  0     5.000   1472 1511 1550 1589 1628 1667 1706 1745 1784 1823 1862 1901 1940 1979 2018
                                   2057 2096 2135 2174 2213 2252 2291 2330 2369 2408 2447
            1  0  1  0     5.000   1473 1512 1551 1590 1629 1668 1707 1746 1785 1824 1863 1902 1941 1980 2019
                                   2058 2097 2136 2175 2214 2253 2292 2331 2370 2409 2448
            0  2  0  0     5.000   1474 1513 1552 1591 1630 1669 1708 1747 1786 1825 1864 1903 1942 1981 2020
                                   2059 2098 2137 2176 2215 2254 2293 2332 2371 2410 2449
            0  1  1  0     5.000   1475 1514 1553 1592 1631 1670 1709 1748 1787 1826 1865 1904 1943 1982 2021
                                   2060 2099 2138 2177 2216 2255 2294 2333 2372 2411 2450
            0  0  2  0     5.000   1476 1515 1554 1593 1632 1671 1710 1749 1788 1827 1866 1905 1944 1983 2022
                                   2061 2100 2139 2178 2217 2256 2295 2334 2373 2412 2451
            2  0  0  0     2.500   1477 1516 1555 1594 1633 1672 1711 1750 1789 1828 1867 1906 1945 1984 2023
                                   2062 2101 2140 2179 2218 2257 2296 2335 2374 2413 2452
            1  1  0  0     2.500   1478 1517 1556 1595 1634 1673 1712 1751 1790 1829 1868 1907 1946 1985 2024
                                   2063 2102 2141 2180 2219 2258 2297 2336 2375 2414 2453
            1  0  1  0     2.500   1479 1518 1557 1596 1635 1674 1713 1752 1791 1830 1869 1908 1947 1986 2025
                                   2064 2103 2142 2181 2220 2259 2298 2337 2376 2415 2454
            0  2  0  0     2.500   1480 1519 1558 1597 1636 1675 1714 1753 1792 1831 1870 1909 1948 1987 2026
                                   2065 2104 2143 2182 2221 2260 2299 2338 2377 2416 2455
            0  1  1  0     2.500   1481 1520 1559 1598 1637 1676 1715 1754 1793 1832 1871 1910 1949 1988 2027
                                   2066 2105 2144 2183 2222 2261 2300 2339 2378 2417 2456
            0  0  2  0     2.500   1482 1521 1560 1599 1638 1677 1716 1755 1794 1833 1872 1911 1950 1989 2028
                                   2067 2106 2145 2184 2223 2262 2301 2340 2379 2418 2457
            2  0  0  0     1.500   1483 1522 1561 1600 1639 1678 1717 1756 1795 1834 1873 1912 1951 1990 2029
                                   2068 2107 2146 2185 2224 2263 2302 2341 2380 2419 2458
            1  1  0  0     1.500   1484 1523 1562 1601 1640 1679 1718 1757 1796 1835 1874 1913 1952 1991 2030
                                   2069 2108 2147 2186 2225 2264 2303 2342 2381 2420 2459
            1  0  1  0     1.500   1485 1524 1563 1602 1641 1680 1719 1758 1797 1836 1875 1914 1953 1992 2031
                                   2070 2109 2148 2187 2226 2265 2304 2343 2382 2421 2460
            0  2  0  0     1.500   1486 1525 1564 1603 1642 1681 1720 1759 1798 1837 1876 1915 1954 1993 2032
                                   2071 2110 2149 2188 2227 2266 2305 2344 2383 2422 2461
            0  1  1  0     1.500   1487 1526 1565 1604 1643 1682 1721 1760 1799 1838 1877 1916 1955 1994 2033
                                   2072 2111 2150 2189 2228 2267 2306 2345 2384 2423 2462
            0  0  2  0     1.500   1488 1527 1566 1605 1644 1683 1722 1761 1800 1839 1878 1917 1956 1995 2034
                                   2073 2112 2151 2190 2229 2268 2307 2346 2385 2424 2463

 N                                   43
                                  ---------------------------------------------------------------------------
            0  0  0  0  3500.000   2464
            0  0  0  0   700.000   2465
            0  0  0  0   175.000   2466
            0  0  0  0    70.000   2467
            0  0  0  0    28.000   2468
            0  0  0  0    12.850   2469
            0  0  0  0     7.650   2470
            0  0  0  0     5.750   2471
            0  0  0  1     6.850   2472
            0  0  0  1     3.200   2473
            0  0  0  1     2.050   2474
            0  0  0  1     1.400   2475
            0  0  0  1     0.700   2476
            1  0  0  0    70.000   2477
            0  1  0  0    70.000   2478
            0  0  1  0    70.000   2479
            1  0  0  0    28.000   2480
            0  1  0  0    28.000   2481
            0  0  1  0    28.000   2482
            1  0  0  0    12.850   2483
            0  1  0  0    12.850   2484
            0  0  1  0    12.850   2485
            1  0  0  0     6.100   2486
            0  1  0  0     6.100   2487
            0  0  1  0     6.100   2488
            1  0  0  0     2.950   2489
            0  1  0  0     2.950   2490
            0  0  1  0     2.950   2491
            1  0  0  0     1.600   2492
            0  1  0  0     1.600   2493
            0  0  1  0     1.600   2494
            1  0  0  0     0.940   2495
            0  1  0  0     0.940   2496
            0  0  1  0     0.940   2497
            2  0  0  0    10.000   2498
            1  1  0  0    10.000   2499
            1  0  1  0    10.000   2500
            0  2  0  0    10.000   2501
            0  1  1  0    10.000   2502
            0  0  2  0    10.000   2503
            2  0  0  0     5.000   2504
            1  1  0  0     5.000   2505
            1  0  1  0     5.000   2506
            0  2  0  0     5.000   2507
            0  1  1  0     5.000   2508
            0  0  2  0     5.000   2509
            2  0  0  0     2.500   2510
            1  1  0  0     2.500   2511
            1  0  1  0     2.500   2512
            0  2  0  0     2.500   2513
            0  1  1  0     2.500   2514
            0  0  2  0     2.500   2515
            2  0  0  0     1.500   2516
            1  1  0  0     1.500   2517
            1  0  1  0     1.500   2518
            0  2  0  0     1.500   2519
            0  1  1  0     1.500   2520
            0  0  2  0     1.500   2521
            3  0  0  0     8.000   2522
            2  1  0  0     8.000   2523
            2  0  1  0     8.000   2524
            1  2  0  0     8.000   2525
            1  1  1  0     8.000   2526
            1  0  2  0     8.000   2527
            0  3  0  0     8.000   2528
            0  2  1  0     8.000   2529
            0  1  2  0     8.000   2530
            0  0  3  0     8.000   2531
            3  0  0  0     4.000   2532
            2  1  0  0     4.000   2533
            2  0  1  0     4.000   2534
            1  2  0  0     4.000   2535
            1  1  1  0     4.000   2536
            1  0  2  0     4.000   2537
            0  3  0  0     4.000   2538
            0  2  1  0     4.000   2539
            0  1  2  0     4.000   2540
            0  0  3  0     4.000   2541
            3  0  0  0     2.000   2542
            2  1  0  0     2.000   2543
            2  0  1  0     2.000   2544
            1  2  0  0     2.000   2545
            1  1  1  0     2.000   2546
            1  0  2  0     2.000   2547
            0  3  0  0     2.000   2548
            0  2  1  0     2.000   2549
            0  1  2  0     2.000   2550
            0  0  3  0     2.000   2551

 Total number of charge fitting functions (nprimf)      5936
 Total number of Cartesian basis functions (naos)       2551
 Total number of Cartesian core functions  (ncos)          0

1
 ***************************************************************************************************



                                              ***********************
                                              *  T E C H N I C A L  *
                                              ***********************
  



 =============================================================
 P A R A L L E L I Z A T I O N  and  V E C T O R I Z A T I O N
 =============================================================
  
 Nr of parallel processes:                                4
 Maximum vector length in NumInt loops:                 128



 =====================
 S C F   U P D A T E S
 =====================
  
 Max. nr. of cycles:                               300
 Convergence criterion:                              0.0000010000
   secondary criterion:                              0.0010000000

 Mix parameter (when DIIS does not apply):           0.2000000000
 Mixed ADIIS+SDIIS will be used                  
    Max number of expansion vectors:                10
    Pure ADIIS when Max([F,P]) is above              0.1000000000
    Pure SDIIS when Max([F,P]) is below              0.0010000000
 Automatic ElectronSmearing (in case of problematic SCF convergence) disabled



 =================
 P R E C I S I O N  ***  (General: NumInt, NeglectFunctionTails, ...)  ***
 =================
  

 NumInt:           Target precision:                 6.0000000000
 -------           Initial precision:                6.0000000000
                   Min. precision (optimization):    6.0000000000

 Neglect Functions:          Basis functions:        0.1000000000E-07
 ------------------          Fit functions:          0.1000000000E-07



 ===========================
 L I N E A R   S C A L I N G
 ===========================
  

 Cut-off radii density fit:                        0.1000000000E-09
 Overlap cut-off criterion AO matrix elements:     0.1000000000E-07
 Cut-offs for Coulomb potential and fitted density:0.1000000000E-09
 Cut-off criterion for Coulomb multipole terms:    0.1000000000E-09
 Progressive Convergence parameter:                 0.000000000    
1
 ***************************************************************************************************



                                            ***************************
                                            *  C O M P U T A T I O N  *
                                            ***************************
  

 Number of elements of the density matrix on this node (used, total):    818699   3255076

 The calculation MAY be unreliable as a result of near linear dependency in the basis.
 Tested is the smallest eigenvalue of the overlap matrix of the basis functions:    0.49921E-05
 Experience shows that such a small value may result in loss of accuracy. Check the
 results of your calculation. If the SCF fit error and the orbital energies look fine,
 your results are reliable. If not, you may consider using the key DEPENDENCY in INPUT.



 ===========================================
 Numerical Integration : Fuzzy Cells (Becke)
 ===========================================
  
 Becke grid quality: GOOD           
  
 Lebedev angular grid order:             min:  11 max:  31
 Nr. of radial points:                   min: 167 max: 353

 Total nr. of points:    1959426
 Nr. of blocks:            15309
 Block length:               128
 Nr. of dummy points:        126


 Test of Precision of the Numerical Integration Grid
 ===================================================

 Integral of the Total Core Density:                   0.00000000000000


 -------------------------------------------
  COSMO surface
  Area             =         1125.756
  Volume           =         2405.424
  Number of Points =         2635
 -------------------------------------------



 ========================
 Density Fitting (zlmFit)
 ========================
  
 ZlmFit Fit Quality: GOOD           
  
 Max L-expansion:                        min:   8 max:   9
 Nr. of radial interpolation points:     min: 270 max: 540



 =====
 S C F  ***  ScaSCF  ***
 =====
  
 Initial density matrix is calculated as sum of fragments

 CYCLE    1
 SCF Error: norm([F,P])=     10.670207325707, max([F,P])=      1.024998278291
 orbitals (Q,E):
 ---------------
 A :67...86          ( 2.00    -0.4740)  ( 2.00    -0.4675)  ( 2.00    -0.4534)  ( 2.00    -0.4474)
                     ( 2.00    -0.4269)  ( 2.00    -0.4114)  ( 2.00    -0.4027)  ( 2.00    -0.3637)
                     ( 2.00    -0.2984)  ( 2.00    -0.2812)  ( 0.00    -0.1157)  ( 0.00    -0.1056)
                     ( 0.00    -0.0858)  ( 0.00    -0.0772)  ( 0.00    -0.0718)  ( 0.00    -0.0663)
                     ( 0.00    -0.0627)  ( 0.00    -0.0471)  ( 0.00    -0.0443)  ( 0.00    -0.0428)

 CYCLE    2
   MIX coefficients:  0.8000  0.2000
 SCF Error: norm([F,P])=      1.697460931977, max([F,P])=      0.192722558804
 orbitals (Q,E):
 ---------------
 A :67...77          ( 2.00    -0.4134)  ( 2.00    -0.4057)  ( 2.00    -0.3960)  ( 2.00    -0.3904)
                     ( 2.00    -0.3772)  ( 2.00    -0.3756)  ( 2.00    -0.3512)  ( 2.00    -0.2905)
                     ( 2.00    -0.2785)  ( 2.00    -0.2635)  ( 0.00    -0.0866)

 CYCLE    3
  SDIIS (wt  0.000): -1.0242  2.0242
 A-DIIS (wt  1.000):  0.0000  1.0000
  DIIS coefficients:  0.0000  1.0000
 SCF Error: norm([F,P])=      0.910257418479, max([F,P])=      0.100321661702
 orbitals (Q,E):
 ---------------
 A :67...77          ( 2.00    -0.2326)  ( 2.00    -0.2313)  ( 2.00    -0.2229)  ( 2.00    -0.2158)
                     ( 2.00    -0.2102)  ( 2.00    -0.2079)  ( 2.00    -0.1905)  ( 2.00    -0.1727)
                     ( 2.00    -0.1639)  ( 2.00    -0.0913)  ( 0.00    -0.0185)

 CYCLE    4
  SDIIS (wt  0.000):  0.1273  0.4341  0.4386
 A-DIIS (wt  1.000): -0.0000  0.6740  0.3260
  DIIS coefficients: -0.0000  0.6740  0.3260
 SCF Error: norm([F,P])=      1.375358052983, max([F,P])=      0.166066876532
 orbitals (Q,E):
 ---------------
 A :67...77          ( 2.00    -0.2966)  ( 2.00    -0.2875)  ( 2.00    -0.2834)  ( 2.00    -0.2763)
                     ( 2.00    -0.2734)  ( 2.00    -0.2685)  ( 2.00    -0.2456)  ( 2.00    -0.2006)
                     ( 2.00    -0.1939)  ( 2.00    -0.1759)  ( 0.00    -0.0255)

 CYCLE    5
  SDIIS (wt  0.723):  0.0592  0.2169  0.1489  0.5749
 A-DIIS (wt  0.277):  0.0000  0.0000  0.0000  1.0000
  DIIS coefficients:  0.0428  0.1568  0.1076  0.6928
 SCF Error: norm([F,P])=      0.241970473240, max([F,P])=      0.028455414254
 orbitals (Q,E):
 ---------------
 A :67...77          ( 2.00    -0.2994)  ( 2.00    -0.2969)  ( 2.00    -0.2957)  ( 2.00    -0.2910)
                     ( 2.00    -0.2859)  ( 2.00    -0.2800)  ( 2.00    -0.2543)  ( 2.00    -0.2183)
                     ( 2.00    -0.2034)  ( 2.00    -0.1703)  ( 0.00    -0.0330)

 CYCLE    6
  SDIIS (wt  0.766): -0.0023  0.0759  0.0122  0.4555  0.4587
 A-DIIS (wt  0.234):  0.0000  0.0000  0.0000  0.3324  0.6676
  DIIS coefficients: -0.0018  0.0581  0.0093  0.4267  0.5076
 SCF Error: norm([F,P])=      0.174494047654, max([F,P])=      0.024190119574
 orbitals (Q,E):
 ---------------
 A :67...77          ( 2.00    -0.3039)  ( 2.00    -0.2983)  ( 2.00    -0.2944)  ( 2.00    -0.2883)
                     ( 2.00    -0.2840)  ( 2.00    -0.2792)  ( 2.00    -0.2554)  ( 2.00    -0.2129)
                     ( 2.00    -0.2033)  ( 2.00    -0.1787)  ( 0.00    -0.0327)

 CYCLE    7
  SDIIS (wt  0.944): -0.0102  0.0280 -0.0016  0.1854  0.2866  0.5118
 A-DIIS (wt  0.056):  0.0000  0.0000  0.0000  0.0000  0.0000  1.0000
  DIIS coefficients: -0.0097  0.0265 -0.0015  0.1751  0.2707  0.5389
 SCF Error: norm([F,P])=      0.042498182682, max([F,P])=      0.006501548661
 orbitals (Q,E):
 ---------------
 A :67...77          ( 2.00    -0.2999)  ( 2.00    -0.2973)  ( 2.00    -0.2940)  ( 2.00    -0.2880)
                     ( 2.00    -0.2840)  ( 2.00    -0.2784)  ( 2.00    -0.2535)  ( 2.00    -0.2127)
                     ( 2.00    -0.2015)  ( 2.00    -0.1764)  ( 0.00    -0.0312)

 CYCLE    8
  SDIIS (wt  0.976): -0.0017  0.0017 -0.0014  0.0523  0.1060  0.3487  0.4944
 A-DIIS (wt  0.024):  0.0000  0.0000  0.0000  0.0000  0.0000  0.1355  0.8645
  DIIS coefficients: -0.0016  0.0017 -0.0014  0.0511  0.1034  0.3437  0.5032
 SCF Error: norm([F,P])=      0.015891165424, max([F,P])=      0.003354810594
 orbitals (Q,E):
 ---------------
 A :67...77          ( 2.00    -0.3012)  ( 2.00    -0.2976)  ( 2.00    -0.2938)  ( 2.00    -0.2879)
                     ( 2.00    -0.2839)  ( 2.00    -0.2785)  ( 2.00    -0.2540)  ( 2.00    -0.2128)
                     ( 2.00    -0.2020)  ( 2.00    -0.1765)  ( 0.00    -0.0316)

 CYCLE    9
  SDIIS (wt  1.000):  0.0005 -0.0022 -0.0004  0.0110  0.0281  0.1313  0.2706  0.5611
  DIIS coefficients:  0.0005 -0.0022 -0.0004  0.0110  0.0281  0.1313  0.2706  0.5611
 SCF Error: norm([F,P])=      0.003595836972, max([F,P])=      0.000619543361
 orbitals (Q,E):
 ---------------
 A :67...77          ( 2.00    -0.3010)  ( 2.00    -0.2975)  ( 2.00    -0.2939)  ( 2.00    -0.2880)
                     ( 2.00    -0.2838)  ( 2.00    -0.2785)  ( 2.00    -0.2540)  ( 2.00    -0.2129)
                     ( 2.00    -0.2020)  ( 2.00    -0.1767)  ( 0.00    -0.0316)

 CYCLE   10
  SDIIS (wt  1.000):  0.0005 -0.0016 -0.0001 -0.0018 -0.0004  0.0214  0.0856  0.3515  0.5450
  DIIS coefficients:  0.0005 -0.0016 -0.0001 -0.0018 -0.0004  0.0214  0.0856  0.3515  0.5450
 SCF Error: norm([F,P])=      0.001609223104, max([F,P])=      0.000262041565
 orbitals (Q,E):
 ---------------
 A :67...77          ( 2.00    -0.3010)  ( 2.00    -0.2975)  ( 2.00    -0.2939)  ( 2.00    -0.2879)
                     ( 2.00    -0.2838)  ( 2.00    -0.2785)  ( 2.00    -0.2540)  ( 2.00    -0.2128)
                     ( 2.00    -0.2020)  ( 2.00    -0.1766)  ( 0.00    -0.0316)

 CYCLE   11
  SDIIS (wt  1.000):  0.0002 -0.0006 -0.0000 -0.0020 -0.0027  0.0002  0.0257  0.1510  0.3238  0.5044
  DIIS coefficients:  0.0002 -0.0006 -0.0000 -0.0020 -0.0027  0.0002  0.0257  0.1510  0.3238  0.5044
 SCF Error: norm([F,P])=      0.000523583577, max([F,P])=      0.000089388502
 orbitals (Q,E):
 ---------------
 A :67...77          ( 2.00    -0.3010)  ( 2.00    -0.2975)  ( 2.00    -0.2939)  ( 2.00    -0.2879)
                     ( 2.00    -0.2838)  ( 2.00    -0.2785)  ( 2.00    -0.2540)  ( 2.00    -0.2128)
                     ( 2.00    -0.2020)  ( 2.00    -0.1766)  ( 0.00    -0.0316)

 CYCLE   12
  SDIIS (wt  1.000): -0.0001 -0.0000 -0.0009 -0.0013 -0.0019  0.0068  0.0527  0.1388  0.3108  0.4952
  DIIS coefficients: -0.0001 -0.0000 -0.0009 -0.0013 -0.0019  0.0068  0.0527  0.1388  0.3108  0.4952
 SCF Error: norm([F,P])=      0.000183139098, max([F,P])=      0.000043642489
 orbitals (Q,E):
 ---------------
 A :67...77          ( 2.00    -0.3010)  ( 2.00    -0.2975)  ( 2.00    -0.2939)  ( 2.00    -0.2879)
                     ( 2.00    -0.2838)  ( 2.00    -0.2785)  ( 2.00    -0.2540)  ( 2.00    -0.2128)
                     ( 2.00    -0.2020)  ( 2.00    -0.1766)  ( 0.00    -0.0316)

 CYCLE   13
  SDIIS (wt  1.000):  0.0000 -0.0002 -0.0003 -0.0012 -0.0003  0.0057  0.0282  0.1017  0.3051  0.5613
  DIIS coefficients:  0.0000 -0.0002 -0.0003 -0.0012 -0.0003  0.0057  0.0282  0.1017  0.3051  0.5613
 SCF Error: norm([F,P])=      0.000067475532, max([F,P])=      0.000012940702
 orbitals (Q,E):
 ---------------
 A :67...77          ( 2.00    -0.3010)  ( 2.00    -0.2975)  ( 2.00    -0.2939)  ( 2.00    -0.2879)
                     ( 2.00    -0.2838)  ( 2.00    -0.2785)  ( 2.00    -0.2540)  ( 2.00    -0.2128)
                     ( 2.00    -0.2020)  ( 2.00    -0.1766)  ( 0.00    -0.0316)

 CYCLE   14
  SDIIS (wt  1.000): -0.0000 -0.0000 -0.0004 -0.0006 -0.0013  0.0028  0.0264  0.1249  0.3463  0.5018
  DIIS coefficients: -0.0000 -0.0000 -0.0004 -0.0006 -0.0013  0.0028  0.0264  0.1249  0.3463  0.5018
 SCF Error: norm([F,P])=      0.000027961052, max([F,P])=      0.000004384555
 orbitals (Q,E):
 ---------------
 A :67...77          ( 2.00    -0.3010)  ( 2.00    -0.2975)  ( 2.00    -0.2939)  ( 2.00    -0.2879)
                     ( 2.00    -0.2838)  ( 2.00    -0.2785)  ( 2.00    -0.2540)  ( 2.00    -0.2128)
                     ( 2.00    -0.2020)  ( 2.00    -0.1766)  ( 0.00    -0.0316)

 CYCLE   15
  SDIIS (wt  1.000):  0.0000 -0.0000 -0.0002 -0.0007 -0.0006  0.0043  0.0317  0.1063  0.2306  0.6286
  DIIS coefficients:  0.0000 -0.0000 -0.0002 -0.0007 -0.0006  0.0043  0.0317  0.1063  0.2306  0.6286
 SCF Error: norm([F,P])=      0.000006016617, max([F,P])=      0.000000739888
 orbitals (Q,E):
 ---------------
 A :67...77          ( 2.00    -0.3010)  ( 2.00    -0.2975)  ( 2.00    -0.2939)  ( 2.00    -0.2879)
                     ( 2.00    -0.2838)  ( 2.00    -0.2785)  ( 2.00    -0.2540)  ( 2.00    -0.2128)
                     ( 2.00    -0.2020)  ( 2.00    -0.1766)  ( 0.00    -0.0316)

 SCF CONVERGED
 cosmo_calcen: 0.5 (esolb+esolc) (Hartrees) =   -0.008639

 Solvation energy (screening term,uncorrected) =     -5.420788 kcal/mol

 Solvation energy (dispersion and cavitation terms) =      1.688053 kcal/mol
 Solvation Energy Contributions (Hartrees)
          esola   esolb+esolc
     0.00863858   -0.01727715
 esol last cycle   -0.00863858

 CYCLE   16
1
 ***************************************************************************************************



                                                *******************
                                                *  R E S U L T S  *
                                                *******************
  
 *** Using FIT density in Focky
  SDIIS (wt  1.000): -0.0000 -0.0001 -0.0005 -0.0011 -0.0014  0.0023  0.0205  0.0760  0.3566  0.5478
  DIIS coefficients: -0.0000 -0.0001 -0.0005 -0.0011 -0.0014  0.0023  0.0205  0.0760  0.3566  0.5478
 SCF Error: norm([F,P])=      0.000002813267, max([F,P])=      0.000000474204

 Orbital Energies, per Irrep and Spin:
 ======================================
                        Occup              E (au)              E (eV)       Diff (eV) with prev. cycle
                        -----      --------------------        ------       --------------------------
 A
              67        2.000     -0.30100761979448E+00        -8.191               2.60E-06
              68        2.000     -0.29751679037861E+00        -8.096               2.59E-06
              69        2.000     -0.29387337191602E+00        -7.997               4.05E-06
              70        2.000     -0.28793334714607E+00        -7.835               1.92E-06
              71        2.000     -0.28382899553338E+00        -7.723               2.78E-06
              72        2.000     -0.27850032237360E+00        -7.578               2.66E-06
              73        2.000     -0.25396475960481E+00        -6.911               2.51E-06
              74        2.000     -0.21281854308284E+00        -5.791              -3.89E-06
              75        2.000     -0.20202086112158E+00        -5.497              -1.19E-06
              76        2.000     -0.17659189723774E+00        -4.805               3.55E-06
              77        0.000     -0.31615431676435E-01        -0.860
              78        0.000     -0.28377690953871E-01        -0.772
              79        0.000     -0.11827994254777E-01        -0.322
              80        0.000     -0.65584477691951E-02        -0.178
              81        0.000      0.17335736427549E-02         0.047
              82        0.000      0.44837088291823E-02         0.122
              83        0.000      0.77385442037123E-02         0.211
              84        0.000      0.10124482407099E-01         0.276
              85        0.000      0.12840493849372E-01         0.349
              86        0.000      0.20847611093597E-01         0.567
  
 HOMO :       76 A                -0.17659189723774E+00
 LUMO :       77 A                -0.31615431676435E-01
  
 cosmo_calcen: 0.5 (esolb+esolc) (Hartrees) =   -0.008639

 Solvation energy (screening term,uncorrected) =     -5.420796 kcal/mol

 Solvation energy (dispersion and cavitation terms) =      1.688053 kcal/mol
 Solvation Energy Contributions (Hartrees)
          esola   esolb+esolc
     0.00863859   -0.01727717
 esol last cycle   -0.00863859


 All Electron Calculation, thus no Orbital Energies of the Core Orbitals are calculated


 Fit test: (difference of exact and fit density, squared integrated, result summed over spins)
         Sum-of-Fragments:                             0.00000000004584
         Orthogonalized Fragments:                     0.00004398938597
         SCF:                                          0.00012599083630



 ==========================
 Electron Density at Nuclei
 ==========================
  
 The electron density is calculated at points on a small sphere around the center of a nucleus.
 The printed electron density is the average electron density on these points.
 The radius of the sphere is the printed approximate finite nuclear radius.

         Atom        Nuclear Radius (Angstrom)             Electron Density (a.u.)
         ----        -------------------------             -----------------------
     1)   S                 0.0000416234                             2661.97648
     2)   P                 0.0000412627                             2180.81810
     3)   O                 0.0000345546                              310.82572
     4)   O                 0.0000345546                              310.79594
     5)   C                 0.0000320678                              126.21541
     6)   C                 0.0000320678                              126.21728
     7)   C                 0.0000320678                              126.17424
     8)   C                 0.0000320678                              126.16953
     9)   C                 0.0000320678                              126.17648
    10)   C                 0.0000320678                              126.16934
    11)   H                 0.0000181514                                0.47984
    12)   H                 0.0000181514                                0.48120
    13)   H                 0.0000181514                                0.47950
    14)   H                 0.0000181514                                0.48118
    15)   H                 0.0000181514                                0.47867
    16)   H                 0.0000181514                                0.47972
    17)   H                 0.0000181514                                0.48011
    18)   H                 0.0000181514                                0.48029
    19)   H                 0.0000181514                                0.47976
    20)   H                 0.0000181514                                0.47861
    21)   H                 0.0000181514                                0.47963
    22)   H                 0.0000181514                                0.48133
    23)   C                 0.0000320678                              126.22088
    24)   C                 0.0000320678                              126.19723
    25)   N                 0.0000333706                              204.52008
    26)   C                 0.0000320678                              126.16203
    27)   C                 0.0000320678                              126.17063
[...]
    3D    5.00     VALENCE
    3D    2.50     VALENCE
    3D    1.50     VALENCE
    4F    8.00     VALENCE
    4F    4.00     VALENCE
    4F    2.00     VALENCE



 =================================
 TAPE10 info, TAPE21 compatibility
 =================================
  
  ---> TAPE10 will be created by CPL
 
  ---> TAPE21 present
 
  ---> Potential is already on TAPE10.
       It will not be re-calculated.



 ==========================================
 Settings for the NMR couplings computation
 ==========================================
  
  Compute...
  FC  Term    YES             (*     default *)
  SD  Term     NO             (*     default *)
  PSO Term     NO             (*     default *)
  DSO Term     NO             (*     default *)
 
  Max. no. of SCF iterations:                25
  Convergence criterion for SCF cycle:       0.000100000

  Nuclei numbering in the output refers to the
  INTERNAL atom ordering of ADF.
  This ordering is usually different from the order
  that has been specified in the ADF input that pro-
  duced the TAPE21 being used here.



 ===========================
 L I N E A R   S C A L I N G
 ===========================
  

 Overlap cut-off criterion AO matrix elements:     0.1000000000E-07





                                  ***********************************************
                                  *  NMR spin spin coupling tensor calculation  *
                                  ***********************************************
  

 Nuclear magnetogyric ratios / 1E7 radians/(s T):
 S  (  1):     2.054
 P  (  2):    10.841
 O  (  3):    -3.628
 O  (  4):    -3.628
 C  (  5):     6.728
 C  (  6):     6.728
 C  (  7):     6.728
 C  (  8):     6.728
 C  (  9):     6.728
 C  ( 10):     6.728
 C  ( 11):     6.728
 C  ( 12):     6.728
 C  ( 13):     6.728
 C  ( 14):     6.728
 C  ( 15):     6.728
 C  ( 16):     6.728
 H  ( 17):    26.752
 H  ( 18):    26.752
 H  ( 19):    26.752
 H  ( 20):    26.752
 H  ( 21):    26.752
 H  ( 22):    26.752
 H  ( 23):    26.752
 H  ( 24):    26.752
 H  ( 25):    26.752
 H  ( 26):    26.752
 H  ( 27):    26.752
 H  ( 28):    26.752
 H  ( 29):    26.752
 H  ( 30):    26.752
 H  ( 31):    26.752
 H  ( 32):    26.752
 H  ( 33):    26.752
 H  ( 34):    26.752
 H  ( 35):    26.752
 H  ( 36):    26.752
 H  ( 37):    26.752
 H  ( 38):    26.752
 H  ( 39):    26.752
 H  ( 40):    26.752
 H  ( 41):    26.752
 H  ( 42):    26.752
 N  ( 43):     1.934

 Performing the following coupling computations:
 Nucleus   2 (P ) perturbing 
          11 (C ) responding
          12 (C ) responding
          29 (H ) responding
          30 (H ) responding
          31 (H ) responding
          32 (H ) responding



 =============================================
 Computation for perturbing ADF-GUI atom: P(2)
 =============================================
  
 
 *** running FC calculation
     computing
     ... matrix elements for perturbing nucleus   2
     ... matrix elements for responding nucleus  11
     ... matrix elements for responding nucleus  12
     ... matrix elements for responding nucleus  29
     ... matrix elements for responding nucleus  30
     ... matrix elements for responding nucleus  31
     ... matrix elements for responding nucleus  32
     ... ZSO / Fermi contact coupling constant(s) 



 ===================================
 CPKS routine for spin-spin coupling  ***  Version 05/08 (scalar)  ***
 ===================================
  
 Using new AO based algorithms for CPKS
    running CPKS for TRIPLET Operator
    using first order VWN potential for LDA perturbation
    Will use LDA kernel
 
 iter.  1 V(1) measure  0.5245666440693E+00
 iter.  2 V(1) measure  0.8394797526165E+00
        2        delta  0.3149131085472E+00
 iter.  3 V(1) measure  0.8412708706802E+00
        3        delta  0.1791118063748E-02
 iter.  4 V(1) measure  0.8412928353252E+00
        4        delta  0.2196464497961E-04
 *** convergence reached



                                                *******************
                                                *  R E S U L T S  *
                                                *******************
  



 ========================================
  Nucleus 2 (P) perturbing nucleus 11 (C)
 ========================================
  
 Internal CPL numbering of atoms:  P(2) perturbing  C(11)
 ADF-GUI atoms:  P(2) perturbing  C(23)
  
 ---------------------------------
   Cartesian Axis Representation  
 ---------------------------------

 ----- k (10^19 kg m-2 s-2 A-2) ----         ------------- j (hz) -------------

 fermi-contact contribution:             
  isotropic    k=      29.669                              j=      36.322
      29.669       0.000       0.000             36.322       0.000       0.000
       0.000      29.669       0.000              0.000      36.322       0.000
       0.000       0.000      29.669              0.000       0.000      36.322

 total calculated spin-spin coupling:    
  isotropic    k=      29.669                              j=      36.322
      29.669       0.000       0.000             36.322       0.000       0.000
       0.000      29.669       0.000              0.000      36.322       0.000
       0.000       0.000      29.669              0.000       0.000      36.322
 
 ---------------------------------
   Principal Axis Representation  
 ---------------------------------

 ----- k (10^19 kg m-2 s-2 A-2) ----         ------------- j (hz) -------------

 fermi-contact contribution:             
  isotropic    k=      29.669                              j=      36.322
      29.669       0.000       0.000             36.322       0.000       0.000
       0.000      29.669       0.000              0.000      36.322       0.000
       0.000       0.000      29.669              0.000       0.000      36.322

 total calculated spin-spin coupling:    
  isotropic    k=      29.669                              j=      36.322
      29.669       0.000       0.000             36.322       0.000       0.000
       0.000      29.669       0.000              0.000      36.322       0.000
       0.000       0.000      29.669              0.000       0.000      36.322
 
 Principal Axis System (u,v,w) expressed in Cartesians:
 (taken as eigenvectors of the symmetric part of the coupling tensor,
  sorted in ascending order of eigenvalues = principal values)
        u         v         w
        1.000     0.000     0.000
        0.000     1.000     0.000
        0.000     0.000     1.000



 ========================================
  Nucleus 2 (P) perturbing nucleus 12 (C)
 ========================================
  
 Internal CPL numbering of atoms:  P(2) perturbing  C(12)
 ADF-GUI atoms:  P(2) perturbing  C(24)
  
 ---------------------------------
   Cartesian Axis Representation  
 ---------------------------------

 ----- k (10^19 kg m-2 s-2 A-2) ----         ------------- j (hz) -------------

 fermi-contact contribution:             
  isotropic    k=      -0.007                              j=      -0.009
      -0.007       0.000       0.000             -0.009       0.000       0.000
       0.000      -0.007       0.000              0.000      -0.009       0.000
       0.000       0.000      -0.007              0.000       0.000      -0.009

 total calculated spin-spin coupling:    
  isotropic    k=      -0.007                              j=      -0.009
      -0.007       0.000       0.000             -0.009       0.000       0.000
       0.000      -0.007       0.000              0.000      -0.009       0.000
       0.000       0.000      -0.007              0.000       0.000      -0.009
 
 ---------------------------------
   Principal Axis Representation  
 ---------------------------------

 ----- k (10^19 kg m-2 s-2 A-2) ----         ------------- j (hz) -------------

 fermi-contact contribution:             
  isotropic    k=      -0.007                              j=      -0.009
      -0.007       0.000       0.000             -0.009       0.000       0.000
       0.000      -0.007       0.000              0.000      -0.009       0.000
       0.000       0.000      -0.007              0.000       0.000      -0.009

 total calculated spin-spin coupling:    
  isotropic    k=      -0.007                              j=      -0.009
      -0.007       0.000       0.000             -0.009       0.000       0.000
       0.000      -0.007       0.000              0.000      -0.009       0.000
       0.000       0.000      -0.007              0.000       0.000      -0.009
 
 Principal Axis System (u,v,w) expressed in Cartesians:
 (taken as eigenvectors of the symmetric part of the coupling tensor,
  sorted in ascending order of eigenvalues = principal values)
        u         v         w
        1.000     0.000     0.000
        0.000     1.000     0.000
        0.000     0.000     1.000



 ========================================
  Nucleus 2 (P) perturbing nucleus 29 (H)
 ========================================
  
 Internal CPL numbering of atoms:  P(2) perturbing  H(29)
 ADF-GUI atoms:  P(2) perturbing  H(30)
  
 ---------------------------------
   Cartesian Axis Representation  
 ---------------------------------

 ----- k (10^19 kg m-2 s-2 A-2) ----         ------------- j (hz) -------------

 fermi-contact contribution:             
  isotropic    k=       2.189                              j=      10.656
       2.189       0.000       0.000             10.656       0.000       0.000
       0.000       2.189       0.000              0.000      10.656       0.000
       0.000       0.000       2.189              0.000       0.000      10.656

 total calculated spin-spin coupling:    
  isotropic    k=       2.189                              j=      10.656
       2.189       0.000       0.000             10.656       0.000       0.000
       0.000       2.189       0.000              0.000      10.656       0.000
       0.000       0.000       2.189              0.000       0.000      10.656
 
 ---------------------------------
   Principal Axis Representation  
 ---------------------------------

 ----- k (10^19 kg m-2 s-2 A-2) ----         ------------- j (hz) -------------

 fermi-contact contribution:             
  isotropic    k=       2.189                              j=      10.656
       2.189       0.000       0.000             10.656       0.000       0.000
       0.000       2.189       0.000              0.000      10.656       0.000
       0.000       0.000       2.189              0.000       0.000      10.656

 total calculated spin-spin coupling:    
  isotropic    k=       2.189                              j=      10.656
       2.189       0.000       0.000             10.656       0.000       0.000
       0.000       2.189       0.000              0.000      10.656       0.000
       0.000       0.000       2.189              0.000       0.000      10.656
 
 Principal Axis System (u,v,w) expressed in Cartesians:
 (taken as eigenvectors of the symmetric part of the coupling tensor,
  sorted in ascending order of eigenvalues = principal values)
        u         v         w
        1.000     0.000     0.000
        0.000     1.000     0.000
        0.000     0.000     1.000



 ========================================
  Nucleus 2 (P) perturbing nucleus 30 (H)
 ========================================
  
 Internal CPL numbering of atoms:  P(2) perturbing  H(30)
 ADF-GUI atoms:  P(2) perturbing  H(31)
  
 ---------------------------------
   Cartesian Axis Representation  
 ---------------------------------

 ----- k (10^19 kg m-2 s-2 A-2) ----         ------------- j (hz) -------------

 fermi-contact contribution:             
  isotropic    k=       3.962                              j=      19.287
       3.962       0.000       0.000             19.287       0.000       0.000
       0.000       3.962       0.000              0.000      19.287       0.000
       0.000       0.000       3.962              0.000       0.000      19.287

 total calculated spin-spin coupling:    
  isotropic    k=       3.962                              j=      19.287
       3.962       0.000       0.000             19.287       0.000       0.000
       0.000       3.962       0.000              0.000      19.287       0.000
       0.000       0.000       3.962              0.000       0.000      19.287
 
 ---------------------------------
   Principal Axis Representation  
 ---------------------------------

 ----- k (10^19 kg m-2 s-2 A-2) ----         ------------- j (hz) -------------

 fermi-contact contribution:             
  isotropic    k=       3.962                              j=      19.287
       3.962       0.000       0.000             19.287       0.000       0.000
       0.000       3.962       0.000              0.000      19.287       0.000
       0.000       0.000       3.962              0.000       0.000      19.287

 total calculated spin-spin coupling:    
  isotropic    k=       3.962                              j=      19.287
       3.962       0.000       0.000             19.287       0.000       0.000
       0.000       3.962       0.000              0.000      19.287       0.000
       0.000       0.000       3.962              0.000       0.000      19.287
 
 Principal Axis System (u,v,w) expressed in Cartesians:
 (taken as eigenvectors of the symmetric part of the coupling tensor,
  sorted in ascending order of eigenvalues = principal values)
        u         v         w
        1.000     0.000     0.000
        0.000     1.000     0.000
        0.000     0.000     1.000



 ========================================
  Nucleus 2 (P) perturbing nucleus 31 (H)
 ========================================
  
 Internal CPL numbering of atoms:  P(2) perturbing  H(31)
 ADF-GUI atoms:  P(2) perturbing  H(32)
  
 ---------------------------------
   Cartesian Axis Representation  
 ---------------------------------

 ----- k (10^19 kg m-2 s-2 A-2) ----         ------------- j (hz) -------------

 fermi-contact contribution:             
  isotropic    k=      -0.203                              j=      -0.988
      -0.203       0.000       0.000             -0.988       0.000       0.000
       0.000      -0.203       0.000              0.000      -0.988       0.000
       0.000       0.000      -0.203              0.000       0.000      -0.988

 total calculated spin-spin coupling:    
  isotropic    k=      -0.203                              j=      -0.988
      -0.203       0.000       0.000             -0.988       0.000       0.000
       0.000      -0.203       0.000              0.000      -0.988       0.000
       0.000       0.000      -0.203              0.000       0.000      -0.988
 
 ---------------------------------
   Principal Axis Representation  
 ---------------------------------

 ----- k (10^19 kg m-2 s-2 A-2) ----         ------------- j (hz) -------------

 fermi-contact contribution:             
  isotropic    k=      -0.203                              j=      -0.988
      -0.203       0.000       0.000             -0.988       0.000       0.000
       0.000      -0.203       0.000              0.000      -0.988       0.000
       0.000       0.000      -0.203              0.000       0.000      -0.988

 total calculated spin-spin coupling:    
  isotropic    k=      -0.203                              j=      -0.988
      -0.203       0.000       0.000             -0.988       0.000       0.000
       0.000      -0.203       0.000              0.000      -0.988       0.000
       0.000       0.000      -0.203              0.000       0.000      -0.988
 
 Principal Axis System (u,v,w) expressed in Cartesians:
 (taken as eigenvectors of the symmetric part of the coupling tensor,
  sorted in ascending order of eigenvalues = principal values)
        u         v         w
        1.000     0.000     0.000
        0.000     1.000     0.000
        0.000     0.000     1.000



 ========================================
  Nucleus 2 (P) perturbing nucleus 32 (H)
 ========================================
  
 Internal CPL numbering of atoms:  P(2) perturbing  H(32)
 ADF-GUI atoms:  P(2) perturbing  H(33)
  
 ---------------------------------
   Cartesian Axis Representation  
 ---------------------------------

 ----- k (10^19 kg m-2 s-2 A-2) ----         ------------- j (hz) -------------

 fermi-contact contribution:             
  isotropic    k=      -0.160                              j=      -0.781
      -0.160       0.000       0.000             -0.781       0.000       0.000
       0.000      -0.160       0.000              0.000      -0.781       0.000
       0.000       0.000      -0.160              0.000       0.000      -0.781

 total calculated spin-spin coupling:    
  isotropic    k=      -0.160                              j=      -0.781
      -0.160       0.000       0.000             -0.781       0.000       0.000
       0.000      -0.160       0.000              0.000      -0.781       0.000
       0.000       0.000      -0.160              0.000       0.000      -0.781
 
 ---------------------------------
   Principal Axis Representation  
 ---------------------------------

 ----- k (10^19 kg m-2 s-2 A-2) ----         ------------- j (hz) -------------

 fermi-contact contribution:             
  isotropic    k=      -0.160                              j=      -0.781
      -0.160       0.000       0.000             -0.781       0.000       0.000
       0.000      -0.160       0.000              0.000      -0.781       0.000
       0.000       0.000      -0.160              0.000       0.000      -0.781

 total calculated spin-spin coupling:    
  isotropic    k=      -0.160                              j=      -0.781
      -0.160       0.000       0.000             -0.781       0.000       0.000
       0.000      -0.160       0.000              0.000      -0.781       0.000
       0.000       0.000      -0.160              0.000       0.000      -0.781
 
 Principal Axis System (u,v,w) expressed in Cartesians:
 (taken as eigenvectors of the symmetric part of the coupling tensor,
  sorted in ascending order of eigenvalues = principal values)
        u         v         w
        1.000     0.000     0.000
        0.000     1.000     0.000
        0.000     0.000     1.000
 *******************************************************************************

                             N M R   E X I T
 NORMAL TERMINATION



 =================
 Timing Statistics
 =================
  
 Total Used :                     CPU=     4324.33      System=       21.50     Elapsed=     5889.79

 Calls  Section                     ( Mean, Percentage )
 ---------------------------------------------------------------------------------------------------
     3  ><      ................      0.00    0.00             0.00    0.00             0.00    0.00
     1  GENPT   ................      8.30    0.19             0.26    1.20             9.91    0.17
     7  CALFC   ................    502.93   81.41             2.44   79.51           690.13   82.02
     1  FCPT1   ................    795.49   18.40             4.10   19.09          1048.94   17.81
     1  FCCPL   ................      0.00    0.00             0.00    0.00             0.00    0.00
     1  JCOUPL  ................      0.00    0.00             0.00    0.01             0.01    0.00
     1  EXIT PROCEDURE .........      0.00    0.00             0.04    0.20             0.04    0.00


 Currently Open Files (EXIT00)
 ====================

 Unit    Access Format  Status   Type       Ident (file)
 -------------------------------------------------------
   3      SEQ    FORM   TRANSP  NORMAL      LOGFILE
                                          ( /home/milias/work/projects/open-collection/theoretical_chemistry/projects/nmr_diplomovky/derivaty_markerov/derivative_1_Martin/ams/nonrel/nmr_opbe_qz4p-j_good_cosmo-chcl3/der1.nmr_opbe_qz4p-j_good_cosmo-chcl3.logfile )
