 argument  1 = diamond-pspw.nw



============================== echo of input deck ==============================
title "Diamond 8 atom cubic cell - geometry and unit cell optimization"
echo

#permanent_dir ./perm
#scratch_dir   ./scratch

start diamond-pspw

memory 950 mb

#**** Enter the geometry using fractional coordinates ****
geometry center noautosym noautoz print
  system crystal
    lat_a 3.56d0
    lat_b 3.56d0
    lat_c 3.56d0
    alpha 90.0d0
    beta  90.0d0
    gamma 90.0d0
  end
  C -0.50000d0 -0.50000d0 -0.50000d0
  C  0.00000d0  0.00000d0 -0.50000d0
  C  0.00000d0 -0.50000d0  0.00000d0
  C -0.50000d0  0.00000d0  0.00000d0
  C -0.25000d0 -0.25000d0 -0.25000d0
  C  0.25000d0  0.25000d0 -0.25000d0
  C  0.25000d0 -0.25000d0  0.25000d0
  C -0.25000d0  0.25000d0  0.25000d0
end

nwpw
  ewald_rcut 3.0
  ewald_ncut 8    #The default value of 1 needs to be increased
  lmbfgs
  xc pbe96
end

driver
  clear
  maxiter 40
end

set includestress .true.   # option tells driver to optimize the unit cell
task pspw optimize ignore

================================================================================


                                         
                                         


             Northwest Computational Chemistry Package (NWChem) 7.0.0
             --------------------------------------------------------


                    Environmental Molecular Sciences Laboratory
                       Pacific Northwest National Laboratory
                                Richland, WA 99352

                              Copyright (c) 1994-2019
                       Pacific Northwest National Laboratory
                            Battelle Memorial Institute

             NWChem is an open-source computational chemistry package
                        distributed under the terms of the
                      Educational Community License (ECL) 2.0
             A copy of the license is included with this distribution
                              in the LICENSE.TXT file

                                  ACKNOWLEDGMENT
                                  --------------

            This software and its documentation were developed at the
            EMSL at Pacific Northwest National Laboratory, a multiprogram
            national laboratory, operated for the U.S. Department of Energy
            by Battelle under Contract Number DE-AC05-76RL01830. Support
            for this work was provided by the Department of Energy Office
            of Biological and Environmental Research, Office of Basic
            Energy Sciences, and the Office of Advanced Scientific Computing.


           Job information
           ---------------

    hostname        = ubuntu-kch
    program         = nwchem
    date            = Thu Jul  9 13:05:16 2020

    compiled        = Wed_Mar_25_17:36:53_2020
    source          = /home/edo/nwchem/debichem-team-builtin/nwchem/nwchem-7.0.0-release
    nwchem branch   = 7.0.0
    nwchem revision = 44e6c3c
    ga revision     = 5.7.1
    use scalapack   = T
    input           = diamond-pspw.nw
    prefix          = diamond-pspw.
    data base       = ./diamond-pspw.db
    status          = startup
    nproc           =        2
    time left       =     -1s



           Memory information
           ------------------

    heap     =   31129596 doubles =    237.5 Mbytes
    stack    =   31129601 doubles =    237.5 Mbytes
    global   =   62259200 doubles =    475.0 Mbytes (distinct from heap & stack)
    total    =  124518397 doubles =    950.0 Mbytes
    verify   = yes
    hardfail = no 


           Directory information
           ---------------------

  0 permanent = .
  0 scratch   = .




                                NWChem Input Module
                                -------------------


          Diamond 8 atom cubic cell - geometry and unit cell optimization
          ---------------------------------------------------------------

  !!!!!!!!!  geom_3d NEEDS TESTING !!!!!!!!!! 


                             Geometry "geometry" -> ""
                             -------------------------

 Output coordinates in angstroms (scale by  1.889725989 to convert to a.u.)

  No.       Tag          Charge          X              Y              Z
 ---- ---------------- ---------- -------------- -------------- --------------
    1 C                    6.0000     1.78000000     1.78000000     1.78000000
    2 C                    6.0000     0.00000000     0.00000000     1.78000000
    3 C                    6.0000     0.00000000     1.78000000     0.00000000
    4 C                    6.0000     1.78000000     0.00000000     0.00000000
    5 C                    6.0000     2.67000000     2.67000000     2.67000000
    6 C                    6.0000     0.89000000     0.89000000     2.67000000
    7 C                    6.0000     0.89000000     2.67000000     0.89000000
    8 C                    6.0000     2.67000000     0.89000000     0.89000000

      Lattice Parameters 
      ------------------ 

      lattice vectors in angstroms (scale by  1.889725989 to convert to a.u.)

      a1=<   3.560   0.000   0.000 >
      a2=<   0.000   3.560   0.000 >
      a3=<   0.000   0.000   3.560 >
      a=       3.560 b=      3.560 c=       3.560
      alpha=  90.000 beta=  90.000 gamma=  90.000
      omega=    45.1

      reciprocal lattice vectors in a.u.

      b1=<   0.934   0.000  -0.000 >
      b2=<  -0.000   0.934  -0.000 >
      b3=<   0.000   0.000   0.934 >

      Atomic Mass 
      ----------- 

      C                 12.000000


 ==============================================================================
                                internuclear distances
 ------------------------------------------------------------------------------
       center one      |      center two      | atomic units |  angstroms
 ------------------------------------------------------------------------------
    5 C                |   1 C                |     2.91306  |     1.54153
    6 C                |   1 C                |     2.91306  |     1.54153
    6 C                |   2 C                |     2.91306  |     1.54153
    7 C                |   1 C                |     2.91306  |     1.54153
    7 C                |   3 C                |     2.91306  |     1.54153
    8 C                |   1 C                |     2.91306  |     1.54153
    8 C                |   4 C                |     2.91306  |     1.54153
 ------------------------------------------------------------------------------
                         number of included internuclear distances:          7
 ==============================================================================



 ==============================================================================
                                 internuclear angles
 ------------------------------------------------------------------------------
        center 1       |       center 2       |       center 3       |  degrees
 ------------------------------------------------------------------------------
    5 C                |   1 C                |   6 C                |   109.47
    5 C                |   1 C                |   7 C                |   109.47
    5 C                |   1 C                |   8 C                |   109.47
    6 C                |   1 C                |   7 C                |   109.47
    6 C                |   1 C                |   8 C                |   109.47
    7 C                |   1 C                |   8 C                |   109.47
    1 C                |   6 C                |   2 C                |   109.47
    1 C                |   7 C                |   3 C                |   109.47
    1 C                |   8 C                |   4 C                |   109.47
 ------------------------------------------------------------------------------
                            number of included internuclear angles:          9
 ==============================================================================




  Deleted DRIVER restart files 



                           NWChem Geometry Optimization
                           ----------------------------




          Diamond 8 atom cubic cell - geometry and unit cell optimization


 maximum gradient threshold         (gmax) =   0.000450
 rms gradient threshold             (grms) =   0.000300
 maximum cartesian step threshold   (xmax) =   0.001800
 rms cartesian step threshold       (xrms) =   0.001200
 fixed trust radius                (trust) =   0.300000
 maximum step size to saddle      (sadstp) =   0.100000
 energy precision                  (eprec) =   1.0D-07
 maximum number of steps          (nptopt) =   40
 initial hessian option           (inhess) =    0
 line search option               (linopt) =    1
 hessian update option            (modupd) =    1
 saddle point option              (modsad) =    0
 initial eigen-mode to follow     (moddir) =    0
 initial variable to follow       (vardir) =    0
 follow first negative mode     (firstneg) =    T
 apply conjugacy                    (opcg) =    F
 source of zmatrix                         =           


          -------------------
          Energy Minimization
          -------------------

  INCLUDING STRESS !!!!!!!!!!!!!!!!

 Using diagonal initial Hessian 
  The initial hessian 

              1        2        3        4        5        6        7        8
    1   36.2980  -0.0000  -0.0000  -3.9007   0.0000  -0.0000  -3.9007  -0.0000
    2   -0.0000  36.2980  -0.0000   0.0000  -3.9007  -0.0000  -0.0000  -0.0000
    3   -0.0000  -0.0000  36.2980  -0.0000  -0.0000  -0.0000   0.0000  -0.0000
    4   -3.9007   0.0000  -0.0000  36.2980  -0.0000   0.0000  -0.0000  -0.0000
    5    0.0000  -3.9007  -0.0000  -0.0000  36.2980   0.0000  -0.0000  -3.9007
    6   -0.0000  -0.0000  -0.0000   0.0000   0.0000  36.2980  -0.0000   0.0000
    7   -3.9007  -0.0000   0.0000  -0.0000  -0.0000  -0.0000  36.2980   0.0000
    8   -0.0000  -0.0000  -0.0000  -0.0000  -3.9007   0.0000   0.0000  36.2980
    9    0.0000  -0.0000  -3.9007  -0.0000   0.0000  -3.9007  -0.0000   0.0000
   10   -0.0000  -0.0000  -0.0000  -3.9007  -0.0000   0.0000  -3.9007   0.0000
   11   -0.0000  -3.9007   0.0000  -0.0000  -0.0000  -0.0000   0.0000  -3.9007
   12   -0.0000   0.0000  -3.9007   0.0000  -0.0000  -3.9007  -0.0000  -0.0000
   13   -5.3093  -3.9740  -3.9740  -5.3093  -3.9740   3.9740  -5.3093   3.9740
   14   -3.9740  -5.3093  -3.9740  -3.9740  -5.3093   3.9740   3.9740  -5.3093
   15   -3.9740  -3.9740  -5.3093   3.9740   3.9740  -5.3093  -3.9740   3.9740
   16   -5.3093  -3.9740   3.9740  -5.3093  -3.9740  -3.9740  -5.3093   3.9740
   17   -3.9740  -5.3093   3.9740  -3.9740  -5.3093  -3.9740   3.9740  -5.3093
   18    3.9740   3.9740  -5.3093  -3.9740  -3.9740  -5.3093   3.9740  -3.9740
   19   -5.3093   3.9740  -3.9740  -5.3093   3.9740   3.9740  -5.3093  -3.9740
   20    3.9740  -5.3093   3.9740   3.9740  -5.3093  -3.9740  -3.9740  -5.3093
   21   -3.9740   3.9740  -5.3093   3.9740  -3.9740  -5.3093  -3.9740  -3.9740
   22   -5.3093   3.9740   3.9740  -5.3093   3.9740  -3.9740  -5.3093  -3.9740
   23    3.9740  -5.3093  -3.9740   3.9740  -5.3093   3.9740  -3.9740  -5.3093
   24    3.9740  -3.9740  -5.3093  -3.9740   3.9740  -5.3093   3.9740   3.9740

              9       10       11       12       13       14       15       16
    1    0.0000  -0.0000  -0.0000  -0.0000  -5.3093  -3.9740  -3.9740  -5.3093
    2   -0.0000  -0.0000  -3.9007   0.0000  -3.9740  -5.3093  -3.9740  -3.9740
    3   -3.9007  -0.0000   0.0000  -3.9007  -3.9740  -3.9740  -5.3093   3.9740
    4   -0.0000  -3.9007  -0.0000   0.0000  -5.3093  -3.9740   3.9740  -5.3093
    5    0.0000  -0.0000  -0.0000  -0.0000  -3.9740  -5.3093   3.9740  -3.9740
    6   -3.9007   0.0000  -0.0000  -3.9007   3.9740   3.9740  -5.3093  -3.9740
    7   -0.0000  -3.9007   0.0000  -0.0000  -5.3093   3.9740  -3.9740  -5.3093
    8    0.0000   0.0000  -3.9007  -0.0000   3.9740  -5.3093   3.9740   3.9740
    9   36.2980  -0.0000  -0.0000  -0.0000  -3.9740   3.9740  -5.3093   3.9740
   10   -0.0000  36.2980   0.0000   0.0000  -5.3093   3.9740   3.9740  -5.3093
   11   -0.0000   0.0000  36.2980  -0.0000   3.9740  -5.3093  -3.9740   3.9740
   12   -0.0000   0.0000  -0.0000  36.2980   3.9740  -3.9740  -5.3093  -3.9740
   13   -3.9740  -5.3093   3.9740   3.9740  36.2980   0.0000   0.0000  -3.9007
   14    3.9740   3.9740  -5.3093  -3.9740   0.0000  36.2980   0.0000   0.0000
   15   -5.3093   3.9740  -3.9740  -5.3093   0.0000   0.0000  36.2980  -0.0000
   16    3.9740  -5.3093   3.9740  -3.9740  -3.9007   0.0000  -0.0000  36.2980
   17   -3.9740   3.9740  -5.3093   3.9740   0.0000  -3.9007  -0.0000   0.0000
   18   -5.3093  -3.9740   3.9740  -5.3093  -0.0000  -0.0000  -0.0000  -0.0000
   19   -3.9740  -5.3093  -3.9740   3.9740  -3.9007  -0.0000   0.0000  -0.0000
   20   -3.9740  -3.9740  -5.3093   3.9740  -0.0000  -0.0000  -0.0000  -0.0000
   21   -5.3093   3.9740   3.9740  -5.3093   0.0000  -0.0000  -3.9007  -0.0000
   22    3.9740  -5.3093  -3.9740  -3.9740  -0.0000  -0.0000  -0.0000  -3.9007
   23    3.9740  -3.9740  -5.3093  -3.9740  -0.0000  -3.9007   0.0000  -0.0000
   24   -5.3093  -3.9740  -3.9740  -5.3093  -0.0000   0.0000  -3.9007   0.0000

             17       18       19       20       21       22       23       24
    1   -3.9740   3.9740  -5.3093   3.9740  -3.9740  -5.3093   3.9740   3.9740
    2   -5.3093   3.9740   3.9740  -5.3093   3.9740   3.9740  -5.3093  -3.9740
    3    3.9740  -5.3093  -3.9740   3.9740  -5.3093   3.9740  -3.9740  -5.3093
    4   -3.9740  -3.9740  -5.3093   3.9740   3.9740  -5.3093   3.9740  -3.9740
    5   -5.3093  -3.9740   3.9740  -5.3093  -3.9740   3.9740  -5.3093   3.9740
    6   -3.9740  -5.3093   3.9740  -3.9740  -5.3093  -3.9740   3.9740  -5.3093
    7    3.9740   3.9740  -5.3093  -3.9740  -3.9740  -5.3093  -3.9740   3.9740
    8   -5.3093  -3.9740  -3.9740  -5.3093  -3.9740  -3.9740  -5.3093   3.9740
    9   -3.9740  -5.3093  -3.9740  -3.9740  -5.3093   3.9740   3.9740  -5.3093
   10    3.9740  -3.9740  -5.3093  -3.9740   3.9740  -5.3093  -3.9740  -3.9740
   11   -5.3093   3.9740  -3.9740  -5.3093   3.9740  -3.9740  -5.3093  -3.9740
   12    3.9740  -5.3093   3.9740   3.9740  -5.3093  -3.9740  -3.9740  -5.3093
   13    0.0000  -0.0000  -3.9007  -0.0000   0.0000  -0.0000  -0.0000  -0.0000
   14   -3.9007  -0.0000  -0.0000  -0.0000  -0.0000  -0.0000  -3.9007   0.0000
   15   -0.0000  -0.0000   0.0000  -0.0000  -3.9007  -0.0000   0.0000  -3.9007
   16    0.0000  -0.0000  -0.0000  -0.0000  -0.0000  -3.9007  -0.0000   0.0000
   17   36.2980  -0.0000  -0.0000  -3.9007   0.0000  -0.0000  -0.0000  -0.0000
   18   -0.0000  36.2980  -0.0000   0.0000  -3.9007   0.0000  -0.0000  -3.9007
   19   -0.0000  -0.0000  36.2980  -0.0000   0.0000  -3.9007   0.0000  -0.0000
   20   -3.9007   0.0000  -0.0000  36.2980  -0.0000   0.0000  -3.9007  -0.0000
   21    0.0000  -3.9007   0.0000  -0.0000  36.2980  -0.0000  -0.0000  -0.0000
   22   -0.0000   0.0000  -3.9007   0.0000  -0.0000  36.2980  -0.0000  -0.0000
   23   -0.0000  -0.0000   0.0000  -3.9007  -0.0000  -0.0000  36.2980   0.0000
   24   -0.0000  -3.9007  -0.0000  -0.0000  -0.0000  -0.0000   0.0000  36.2980

             25       26       27       28       29       30       31       32
   25    2.4865   0.0000   0.0000   0.0000   0.0067   0.0000   0.0000   0.0000
   26    0.0000   1.0000   0.0000   0.0067   0.0000   0.0000   0.0000   0.0000
   27    0.0000   0.0000   1.0000   0.0000   0.0000   0.0000   0.0067   0.0000
   28    0.0000   0.0067   0.0000   1.0000   0.0000   0.0000   0.0000   0.0000
   29    0.0067   0.0000   0.0000   0.0000   2.4865   0.0000   0.0000   0.0000
   30    0.0000   0.0000   0.0000   0.0000   0.0000   1.0000   0.0000   0.0067
   31    0.0000   0.0000   0.0067   0.0000   0.0000   0.0000   1.0000   0.0000
   32    0.0000   0.0000   0.0000   0.0000   0.0000   0.0067   0.0000   1.0000
   33    0.0067   0.0000   0.0000   0.0000   0.0067   0.0000   0.0000   0.0000

             33      
   25    0.0067
   28    0.0000
   29    0.0067
   33    2.4865

          --------
          Step   0
          --------


                         Geometry "geometry" -> "geometry"
                         ---------------------------------

 Output coordinates in angstroms (scale by  1.889725989 to convert to a.u.)

  No.       Tag          Charge          X              Y              Z
 ---- ---------------- ---------- -------------- -------------- --------------
    1 C                    6.0000     1.78000000     1.78000000     1.78000000
    2 C                    6.0000     0.00000000     0.00000000     1.78000000
    3 C                    6.0000     0.00000000     1.78000000     0.00000000
    4 C                    6.0000     1.78000000     0.00000000     0.00000000
    5 C                    6.0000     2.67000000     2.67000000     2.67000000
    6 C                    6.0000     0.89000000     0.89000000     2.67000000
    7 C                    6.0000     0.89000000     2.67000000     0.89000000
    8 C                    6.0000     2.67000000     0.89000000     0.89000000

      Lattice Parameters 
      ------------------ 

      lattice vectors in angstroms (scale by  1.889725989 to convert to a.u.)

      a1=<   3.560   0.000   0.000 >
      a2=<   0.000   3.560   0.000 >
      a3=<   0.000   0.000   3.560 >
      a=       3.560 b=      3.560 c=       3.560
      alpha=  90.000 beta=  90.000 gamma=  90.000
      omega=    45.1

      reciprocal lattice vectors in a.u.

      b1=<   0.934   0.000  -0.000 >
      b2=<  -0.000   0.934  -0.000 >
      b3=<   0.000   0.000   0.934 >

      Atomic Mass 
      ----------- 

      C                 12.000000


  library name resolved from: compiled reference
  NWCHEM_NWPW_LIBRARY set to: </usr/share/nwchem/libraryps/>
          ****************************************************
          *                                                  *
          *               NWPW PSPW Calculation              *
          *                                                  *
          * [ (Grassmann/Stiefel manifold implementation)  ] *
          *                                                  *
          *      [ NorthWest Chemistry implementation ]      *
          *                                                  *
          *            version #5.10   06/12/02              *
          *                                                  *
          *    This code was developed by Eric J. Bylaska,   *
          *    and was based upon algorithms and code        *
          *    developed by the group of Prof. John H. Weare *
          *                                                  *
          ****************************************************
     >>>  JOB STARTED       AT Thu Jul  9 13:05:16 2020  <<<
          ================ input data ========================
  library name resolved from: compiled reference
  NWCHEM_NWPW_LIBRARY set to: </usr/share/nwchem/libraryps/>
 Generating 1d pseudopotential for C   

 Generated formatted_filename: ./C.vpp
 random planewave guess, initial psi:diamond-pspw.movecs                               
 -   spin, nalpha, nbeta:                    1                   16                    0

 input psi filename:./diamond-pspw.movecs

 Warning - K.S. orbitals are not orthonormal. Applying Gram-Schmidt orthonormalization.
         - exact norm=0.160000E+02 norm=0.102868E+02 corrected norm=0.160000E+02 (error=0.571316E+01)


 number of processors used:         2
 processor grid           :   2 x   1
 parallel mapping         :2d hilbert
 parallel mapping         :  balanced
 number of threads        :         1
 parallel io              :       off

 options:
      boundary conditions  = periodic    (version3)
      electron spin        = restricted
      exchange-correlation = PBE96 (White and Bird) parameterization

 elements involved in the cluster:
      1: C   valence charge:  4.0000  lmax=  2
             comment    : Parameterized (J.Phys.Chem., vol 100, page 6966) Hamman psp
             pseudpotential type            :   0
             highest angular component      :   2
             local potential used           :   2
             number of non-local projections:   4
             cutoff =   0.800   0.850   0.850


 total charge:   0.000

 atomic composition:
     C   :    8

 number of electrons: spin up=    16 (  16 per task)  down=    16 (  16 per task) (Fourier space)
 number of orbitals : spin up=    16 (  16 per task)  down=    16 (  16 per task) (Fourier space)

 supercell:
      cell_name:  cell_default                                      
      lattice:    a1=<   6.727   0.000   0.000 >
                  a2=<   0.000   6.727   0.000 >
                  a3=<   0.000   0.000   6.727 >
      reciprocal: b1=<   0.934   0.000  -0.000 >
                  b2=<  -0.000   0.934  -0.000 >
                  b3=<   0.000   0.000   0.934 >
      lattice:    a=       6.727 b=      6.727 c=       6.727
                  alpha=  90.000 beta=  90.000 gamma=  90.000
                  omega=       304.5

      density cutoff= 17.500  fft= 14x 14x 14(      523 waves      262 per task)
      wavefnc cutoff=  8.750  fft= 14x 14x 14(      195 waves       98 per task)
      Ewald summation: cut radius=    3.00  and  8
                       Madelung Wigner-Seitz=    1.76011888 (alpha=    2.83729748 rs= 4.17336110)

 technical parameters:
      time step=      5.80     fictitious mass=  400000.0
      tolerance=0.100E-06 (energy)   0.100E-06 (density)
      maximum iterations =      1000 (   10 inner    100 outer )





== Energy Calculation ==


          ============ Grassmann lmbfgs iteration ============
     >>>  ITERATION STARTED AT Thu Jul  9 13:05:16 2020  <<<
    iter.           Energy         DeltaE       DeltaRho 
    ------------------------------------------------------
      10   -0.4204785392E+02   -0.54670E+00    0.16098E+01
     -  10 steepest descent iterations performed
      20   -0.4405707064E+02   -0.50289E-01    0.93371E-01
     -  10 steepest descent iterations performed
      30   -0.4418810337E+02   -0.84339E-03    0.98466E-02
      40   -0.4418907290E+02   -0.28939E-05    0.43193E-04
      50   -0.4418907587E+02   -0.63521E-08    0.16480E-06
      60   -0.4418907587E+02   -0.46850E-08    0.14789E-09
  *** tolerance ok. iteration terminated
     >>>  ITERATION ENDED   AT Thu Jul  9 13:05:17 2020  <<<


==  Summary Of Results  ==

 number of electrons: spin up=   16.00000  down=   16.00000 (real space)

 total     energy    :  -0.4418907587E+02 (   -0.55236E+01/ion)
 total orbital energy:   0.6680657611E+01 (    0.41754E+00/electron)
 hartree   energy    :   0.3974137116E+01 (    0.24838E+00/electron)
 exc-corr  energy    :  -0.1434985307E+02 (   -0.89687E+00/electron)
 ion-ion   energy    :  -0.5124621968E+02 (   -0.64058E+01/ion)

 kinetic (planewave) :   0.3266628990E+02 (    0.20416E+01/electron)
 V_local (planewave) :  -0.1548602134E+02 (   -0.96788E+00/electron)
 V_nl    (planewave) :   0.2525912152E+00 (    0.15787E-01/electron)
 V_Coul  (planewave) :   0.7948274232E+01 (    0.49677E+00/electron)
 V_xc.   (planewave) :  -0.1870047639E+02 (   -0.11688E+01/electron)
 Virial Coefficient  :  -0.7954877143E+00

 orbital energies:
     0.5176511E+00 (  14.086eV)
     0.5176510E+00 (  14.086eV)
     0.5176510E+00 (  14.086eV)
     0.3014040E+00 (   8.202eV)
     0.3014038E+00 (   8.202eV)
     0.3014033E+00 (   8.202eV)
     0.3014032E+00 (   8.202eV)
     0.3014028E+00 (   8.202eV)
     0.3014025E+00 (   8.202eV)
     0.4437003E-01 (   1.207eV)
     0.4436909E-01 (   1.207eV)
     0.4436899E-01 (   1.207eV)
     0.4427323E-01 (   1.205eV)
     0.4427304E-01 (   1.205eV)
     0.4427254E-01 (   1.205eV)
    -0.2869708E+00 (  -7.809eV)

 Total PSPW energy     :  -0.4418907587E+02


=== Spin Contamination ===

 <Sexact^2> =    0.0000000000000000     
 <S^2>      =    0.0000000000000000     



== Center of Charge ==

spin up     (   -0.0000,    0.0000,   -0.0000 )
spin down   (   -0.0000,    0.0000,   -0.0000 )
     total  (   -0.0000,    0.0000,   -0.0000 )
ionic       (    0.8409,    0.8409,    0.8409 )


== Molecular Dipole wrt Center of Mass ==

mu   =  (   26.9097,   26.9097,   26.9097 ) au
|mu| =    46.6090 au,     118.4613 Debye

 output psi filename:./diamond-pspw.movecs


== Timing ==

cputime in seconds
  prologue    :   0.172772E+00
  main loop   :   0.881575E+00
  epilogue    :   0.454885E-02
  total       :   0.105890E+01
  cputime/step:   0.653018E-02       (     135 evalulations,      51 linesearches)


Time spent doing                        total          step       percent
  total time                 :   0.106028E+01  0.785394E-02       100.0 %
  i/o time                   :   0.125898E+00  0.932581E-03        11.9 %
  FFTs                       :   0.186298E+00  0.137999E-02        17.6 %
  dot products               :   0.903235E-01  0.669063E-03         8.5 %
  geodesic                   :   0.108596E+00  0.804412E-03        10.2 %
  ffm_dgemm                  :   0.373654E-02  0.276781E-04         0.4 %
  fmf_dgemm                  :   0.448226E-02  0.332019E-04         0.4 %
  mmm_dgemm                  :   0.784718E-03  0.581273E-05         0.1 %
  m_diagonalize              :   0.482335E-02  0.357285E-04         0.5 %
  exchange correlation       :   0.197409E+00  0.146229E-02        18.6 %
  local pseudopotentials     :   0.293623E-04  0.217498E-06         0.0 %
  non-local pseudopotentials :   0.128508E-01  0.951911E-04         1.2 %
  hartree potentials         :   0.191613E-02  0.141936E-04         0.2 %
  ion-ion interaction        :   0.400914E-01  0.296974E-03         3.8 %
  structure factors          :   0.731458E-03  0.541821E-05         0.1 %
  phase factors              :   0.190102E-04  0.140816E-06         0.0 %
  masking and packing        :   0.100163E+00  0.741948E-03         9.4 %
  queue fft                  :   0.439766E+00  0.325752E-02        41.5 %
  queue fft (serial)         :   0.150358E+00  0.111377E-02        14.2 %
  queue fft (message passing):   0.286088E+00  0.211917E-02        27.0 %
  non-local psp FFM          :   0.817302E-02  0.605409E-04         0.8 %
  non-local psp FMF          :   0.201653E-02  0.149373E-04         0.2 %
  non-local psp FFM A        :   0.431029E-03  0.319281E-05         0.0 %
  non-local psp FFM B        :   0.469245E-02  0.347589E-04         0.4 %

     >>>  JOB COMPLETED     AT Thu Jul  9 13:05:17 2020  <<<
          ****************************************************
          *                                                  *
          *               NWPW PSPW Calculation              *
          *                                                  *
          * [ (Grassmann/Stiefel manifold implementation)  ] *
          *                                                  *
          *      [ NorthWest Chemistry implementation ]      *
          *                                                  *
          *            version #5.10   06/12/02              *
          *                                                  *
          *    This code was developed by Eric J. Bylaska,   *
          *    and was based upon algorithms and code        *
          *    developed by the group of Prof. John H. Weare *
          *                                                  *
          ****************************************************
     >>>  JOB STARTED       AT Thu Jul  9 13:05:17 2020  <<<
          ================ input data ========================
 pseudopotential is not correctly formatted:C.vpp                                             

 Generated formatted_filename: ./C.vpp
 Error reading psi - bad grid
 nfft :                   14                   14                   14
 ngrid:                   20                   20                   20
 Error reading psi - bad grid
 nfft :                   14                   14                   14
 ngrid:                   20                   20                   20
 Error reading psi - bad grid

 Grid is being converted:
 ------------------------

 To turn off automatic grid conversion:

 set nwpw:psi_nogrid .false.

 old_filename: diamond-pspw.movecs                               
 new_filename: diamond-pspw.movecs                               
 converting  :  14x 14x 14 -->  20x 20x 20
converting .... psi:    1 spin: 1
converting .... psi:    2 spin: 1
converting .... psi:    3 spin: 1
converting .... psi:    4 spin: 1
converting .... psi:    5 spin: 1
converting .... psi:    6 spin: 1
converting .... psi:    7 spin: 1
converting .... psi:    8 spin: 1
converting .... psi:    9 spin: 1
converting .... psi:   10 spin: 1
converting .... psi:   11 spin: 1
converting .... psi:   12 spin: 1
converting .... psi:   13 spin: 1
converting .... psi:   14 spin: 1
converting .... psi:   15 spin: 1
converting .... psi:   16 spin: 1

 input psi filename:./diamond-pspw.movecs

 number of processors used:         2
 processor grid           :   2 x   1
 parallel mapping         :2d hilbert
 parallel mapping         :  balanced
 number of threads        :         1
 parallel io              :       off

 options:
      boundary conditions  = periodic    (version3)
      electron spin        = restricted
      exchange-correlation = PBE96 (White and Bird) parameterization

 elements involved in the cluster:
      1: C   valence charge:  4.0000  lmax=  2
             comment    : Parameterized (J.Phys.Chem., vol 100, page 6966) Hamman psp
             pseudpotential type            :   0
             highest angular component      :   2
             local potential used           :   2
             number of non-local projections:   4
             cutoff =   0.800   0.850   0.850


 total charge:   0.000

 atomic composition:
     C   :    8

 number of electrons: spin up=    16 (  16 per task)  down=    16 (  16 per task) (Fourier space)
 number of orbitals : spin up=    16 (  16 per task)  down=    16 (  16 per task) (Fourier space)

 supercell:
      cell_name:  cell_default                                      
      lattice:    a1=<   6.727   0.000   0.000 >
                  a2=<   0.000   6.727   0.000 >
                  a3=<   0.000   0.000   6.727 >
      reciprocal: b1=<   0.934   0.000  -0.000 >
                  b2=<  -0.000   0.934  -0.000 >
                  b3=<   0.000   0.000   0.934 >
      lattice:    a=       6.727 b=      6.727 c=       6.727
                  alpha=  90.000 beta=  90.000 gamma=  90.000
                  omega=       304.5

      density cutoff= 35.000  fft= 20x 20x 20(     1485 waves      743 per task)
      wavefnc cutoff= 17.500  fft= 20x 20x 20(      523 waves      262 per task)
      Ewald summation: cut radius=    3.00  and  8
                       Madelung Wigner-Seitz=    1.76011888 (alpha=    2.83729748 rs= 4.17336110)

 technical parameters:
      time step=      5.80     fictitious mass=  400000.0
      tolerance=0.100E-06 (energy)   0.100E-06 (density)
      maximum iterations =      1000 (   10 inner    100 outer )





== Energy Calculation ==


          ============ Grassmann lmbfgs iteration ============
     >>>  ITERATION STARTED AT Thu Jul  9 13:05:17 2020  <<<
    iter.           Energy         DeltaE       DeltaRho 
    ------------------------------------------------------
      10   -0.4501257352E+02   -0.26878E-04    0.33059E-01
      20   -0.4501261092E+02   -0.28359E-08    0.11602E-05
      30   -0.4501261092E+02   -0.14329E-08    0.19062E-10
  *** tolerance ok. iteration terminated
     >>>  ITERATION ENDED   AT Thu Jul  9 13:05:18 2020  <<<


==  Summary Of Results  ==

 number of electrons: spin up=   16.00000  down=   16.00000 (real space)

 total     energy    :  -0.4501261092E+02 (   -0.56266E+01/ion)
 total orbital energy:   0.6138684378E+01 (    0.38367E+00/electron)
 hartree   energy    :   0.4280666900E+01 (    0.26754E+00/electron)
 exc-corr  energy    :  -0.1443854997E+02 (   -0.90241E+00/electron)
 ion-ion   energy    :  -0.5124621968E+02 (   -0.64058E+01/ion)

 kinetic (planewave) :   0.3465294448E+02 (    0.21658E+01/electron)
 V_local (planewave) :  -0.1721616412E+02 (   -0.10760E+01/electron)
 V_nl    (planewave) :  -0.1045288524E+01 (   -0.65331E-01/electron)
 V_Coul  (planewave) :   0.8561333800E+01 (    0.53508E+00/electron)
 V_xc.   (planewave) :  -0.1881414125E+02 (   -0.11759E+01/electron)
 Virial Coefficient  :  -0.8228524453E+00

 orbital energies:
     0.5053131E+00 (  13.750eV)
     0.5053131E+00 (  13.750eV)
     0.5053131E+00 (  13.750eV)
     0.2717005E+00 (   7.393eV)
     0.2717005E+00 (   7.393eV)
     0.2717004E+00 (   7.393eV)
     0.2717004E+00 (   7.393eV)
     0.2717002E+00 (   7.393eV)
     0.2717002E+00 (   7.393eV)
     0.3520948E-01 (   0.958eV)
     0.3520936E-01 (   0.958eV)
     0.3520931E-01 (   0.958eV)
     0.3520845E-01 (   0.958eV)
     0.3520842E-01 (   0.958eV)
     0.3520832E-01 (   0.958eV)
    -0.2880528E+00 (  -7.838eV)

 Total PSPW energy     :  -0.4501261092E+02


=== Spin Contamination ===

 <Sexact^2> =    0.0000000000000000     
 <S^2>      =    0.0000000000000000     



== Center of Charge ==

spin up     (   -0.0000,    0.0000,   -0.0000 )
spin down   (   -0.0000,    0.0000,   -0.0000 )
     total  (   -0.0000,    0.0000,   -0.0000 )
ionic       (    0.8409,    0.8409,    0.8409 )


== Molecular Dipole wrt Center of Mass ==

mu   =  (   26.9097,   26.9097,   26.9097 ) au
|mu| =    46.6090 au,     118.4613 Debye

 output psi filename:./diamond-pspw.movecs


== Timing ==

cputime in seconds
  prologue    :   0.104933E+00
  main loop   :   0.371644E+00
  epilogue    :   0.654684E-02
  total       :   0.483124E+00
  cputime/step:   0.758456E-02       (      49 evalulations,      21 linesearches)


Time spent doing                        total          step       percent
  total time                 :   0.484369E+00  0.988508E-02       100.0 %
  i/o time                   :   0.563532E-01  0.115007E-02        11.6 %
  FFTs                       :   0.724343E-01  0.147825E-02        15.0 %
  dot products               :   0.752241E-02  0.153519E-03         1.6 %
  geodesic                   :   0.171634E-01  0.350273E-03         3.5 %
  ffm_dgemm                  :   0.197820E-02  0.403715E-04         0.4 %
  fmf_dgemm                  :   0.474441E-02  0.968247E-04         1.0 %
  mmm_dgemm                  :   0.273733E-03  0.558639E-05         0.1 %
  m_diagonalize              :   0.205659E-02  0.419713E-04         0.4 %
  exchange correlation       :   0.101814E+00  0.207784E-02        21.0 %
  local pseudopotentials     :   0.494379E-04  0.100894E-05         0.0 %
  non-local pseudopotentials :   0.820462E-02  0.167441E-03         1.7 %
  hartree potentials         :   0.929694E-03  0.189734E-04         0.2 %
  ion-ion interaction        :   0.202630E-01  0.413531E-03         4.2 %
  structure factors          :   0.670497E-03  0.136836E-04         0.1 %
  phase factors              :   0.201762E-04  0.411759E-06         0.0 %
  masking and packing        :   0.417323E-01  0.851679E-03         8.6 %
  queue fft                  :   0.175054E+00  0.357253E-02        36.1 %
  queue fft (serial)         :   0.534815E-01  0.109146E-02        11.0 %
  queue fft (message passing):   0.119128E+00  0.243118E-02        24.6 %
  non-local psp FFM          :   0.493936E-02  0.100803E-03         1.0 %
  non-local psp FMF          :   0.183995E-02  0.375501E-04         0.4 %
  non-local psp FFM A        :   0.408350E-03  0.833367E-05         0.1 %
  non-local psp FFM B        :   0.332975E-02  0.679541E-04         0.7 %

     >>>  JOB COMPLETED     AT Thu Jul  9 13:05:18 2020  <<<
          ****************************************************
          *                                                  *
          *               NWPW PSPW Calculation              *
          *                                                  *
          * [ (Grassmann/Stiefel manifold implementation)  ] *
          *                                                  *
          *      [ NorthWest Chemistry implementation ]      *
          *                                                  *
          *            version #5.10   06/12/02              *
          *                                                  *
          *    This code was developed by Eric J. Bylaska,   *
          *    and was based upon algorithms and code        *
          *    developed by the group of Prof. John H. Weare *
          *                                                  *
          ****************************************************
     >>>  JOB STARTED       AT Thu Jul  9 13:05:18 2020  <<<
          ================ input data ========================
 pseudopotential is not correctly formatted:C.vpp                                             

 Generated formatted_filename: ./C.vpp
 Error reading psi - bad grid
 nfft :                   20                   20                   20
 ngrid:                   24                   24                   24
 Error reading psi - bad grid
 nfft :                   20                   20                   20
 ngrid:                   24                   24                   24
 Error reading psi - bad grid

 Grid is being converted:
 ------------------------

 To turn off automatic grid conversion:

 set nwpw:psi_nogrid .false.

 old_filename: diamond-pspw.movecs                               
 new_filename: diamond-pspw.movecs                               
 converting  :  20x 20x 20 -->  24x 24x 24
converting .... psi:    1 spin: 1
converting .... psi:    2 spin: 1
converting .... psi:    3 spin: 1
converting .... psi:    4 spin: 1
converting .... psi:    5 spin: 1
converting .... psi:    6 spin: 1
converting .... psi:    7 spin: 1
converting .... psi:    8 spin: 1
converting .... psi:    9 spin: 1
converting .... psi:   10 spin: 1
converting .... psi:   11 spin: 1
converting .... psi:   12 spin: 1
converting .... psi:   13 spin: 1
converting .... psi:   14 spin: 1
converting .... psi:   15 spin: 1
converting .... psi:   16 spin: 1

 input psi filename:./diamond-pspw.movecs

 number of processors used:         2
 processor grid           :   2 x   1
 parallel mapping         :2d hilbert
 parallel mapping         :  balanced
 number of threads        :         1
 parallel io              :       off

 options:
      boundary conditions  = periodic    (version3)
      electron spin        = restricted
      exchange-correlation = PBE96 (White and Bird) parameterization

 elements involved in the cluster:
      1: C   valence charge:  4.0000  lmax=  2
             comment    : Parameterized (J.Phys.Chem., vol 100, page 6966) Hamman psp
             pseudpotential type            :   0
             highest angular component      :   2
             local potential used           :   2
             number of non-local projections:   4
             cutoff =   0.800   0.850   0.850


 total charge:   0.000

 atomic composition:
     C   :    8

 number of electrons: spin up=    16 (  16 per task)  down=    16 (  16 per task) (Fourier space)
 number of orbitals : spin up=    16 (  16 per task)  down=    16 (  16 per task) (Fourier space)

 supercell:
      cell_name:  cell_default                                      
      lattice:    a1=<   6.727   0.000   0.000 >
                  a2=<   0.000   6.727   0.000 >
                  a3=<   0.000   0.000   6.727 >
      reciprocal: b1=<   0.934   0.000  -0.000 >
                  b2=<  -0.000   0.934  -0.000 >
                  b3=<   0.000   0.000   0.934 >
      lattice:    a=       6.727 b=      6.727 c=       6.727
                  alpha=  90.000 beta=  90.000 gamma=  90.000
                  omega=       304.5

      density cutoff= 52.500  fft= 24x 24x 24(     2749 waves     1375 per task)
      wavefnc cutoff= 26.250  fft= 24x 24x 24(      968 waves      484 per task)
      Ewald summation: cut radius=    3.00  and  8
                       Madelung Wigner-Seitz=    1.76011888 (alpha=    2.83729748 rs= 4.17336110)

 technical parameters:
      time step=      5.80     fictitious mass=  400000.0
      tolerance=0.100E-06 (energy)   0.100E-06 (density)
      maximum iterations =      1000 (   10 inner    100 outer )





== Energy Calculation ==


          ============ Grassmann lmbfgs iteration ============
     >>>  ITERATION STARTED AT Thu Jul  9 13:05:18 2020  <<<
    iter.           Energy         DeltaE       DeltaRho 
    ------------------------------------------------------
      10   -0.4503007907E+02   -0.86442E-07    0.86895E-04
      20   -0.4503007911E+02   -0.39720E-07    0.19411E-09
  *** tolerance ok. iteration terminated
     >>>  ITERATION ENDED   AT Thu Jul  9 13:05:18 2020  <<<


==  Summary Of Results  ==

 number of electrons: spin up=   16.00000  down=   16.00000 (real space)

 total     energy    :  -0.4503007911E+02 (   -0.56288E+01/ion)
 total orbital energy:   0.6126705977E+01 (    0.38292E+00/electron)
 hartree   energy    :   0.4286666236E+01 (    0.26792E+00/electron)
 exc-corr  energy    :  -0.1444073496E+02 (   -0.90255E+00/electron)
 ion-ion   energy    :  -0.5124621968E+02 (   -0.64058E+01/ion)

 kinetic (planewave) :   0.3470386500E+02 (    0.21690E+01/electron)
 V_local (planewave) :  -0.1725058461E+02 (   -0.10782E+01/electron)
 V_nl    (planewave) :  -0.1083071083E+01 (   -0.67692E-01/electron)
 V_Coul  (planewave) :   0.8573332473E+01 (    0.53583E+00/electron)
 V_xc.   (planewave) :  -0.1881683579E+02 (   -0.11761E+01/electron)
 Virial Coefficient  :  -0.8234575320E+00

 orbital energies:
     0.5047029E+00 (  13.734eV)
     0.5047029E+00 (  13.734eV)
     0.5047029E+00 (  13.734eV)
     0.2711169E+00 (   7.378eV)
     0.2711169E+00 (   7.378eV)
     0.2711168E+00 (   7.378eV)
     0.2711168E+00 (   7.378eV)
     0.2711167E+00 (   7.378eV)
     0.2711167E+00 (   7.378eV)
     0.3511536E-01 (   0.956eV)
     0.3511526E-01 (   0.956eV)
     0.3511524E-01 (   0.956eV)
     0.3511472E-01 (   0.956eV)
     0.3511470E-01 (   0.956eV)
     0.3511463E-01 (   0.956eV)
    -0.2881467E+00 (  -7.841eV)

 Total PSPW energy     :  -0.4503007911E+02


=== Spin Contamination ===

 <Sexact^2> =    0.0000000000000000     
 <S^2>      =    0.0000000000000000     



== Center of Charge ==

spin up     (   -0.0000,    0.0000,   -0.0000 )
spin down   (   -0.0000,    0.0000,   -0.0000 )
     total  (   -0.0000,    0.0000,   -0.0000 )
ionic       (    0.8409,    0.8409,    0.8409 )


== Molecular Dipole wrt Center of Mass ==

mu   =  (   26.9097,   26.9097,   26.9097 ) au
|mu| =    46.6090 au,     118.4613 Debye

 output psi filename:./diamond-pspw.movecs


== Timing ==

cputime in seconds
  prologue    :   0.135787E+00
  main loop   :   0.293935E+00
  epilogue    :   0.842636E-02
  total       :   0.438149E+00
  cputime/step:   0.113052E-01       (      26 evalulations,      11 linesearches)


Time spent doing                        total          step       percent
  total time                 :   0.439400E+00  0.169000E-01       100.0 %
  i/o time                   :   0.872250E-01  0.335481E-02        19.9 %
  FFTs                       :   0.540665E-01  0.207948E-02        12.3 %
  dot products               :   0.615954E-02  0.236906E-03         1.4 %
  geodesic                   :   0.120771E-01  0.464504E-03         2.7 %
  ffm_dgemm                  :   0.162355E-02  0.624443E-04         0.4 %
  fmf_dgemm                  :   0.489071E-02  0.188104E-03         1.1 %
  mmm_dgemm                  :   0.179350E-03  0.689807E-05         0.0 %
  m_diagonalize              :   0.105010E-02  0.403883E-04         0.2 %
  exchange correlation       :   0.818234E-01  0.314705E-02        18.6 %
  local pseudopotentials     :   0.765598E-04  0.294461E-05         0.0 %
  non-local pseudopotentials :   0.719200E-02  0.276615E-03         1.6 %
  hartree potentials         :   0.677138E-03  0.260438E-04         0.2 %
  ion-ion interaction        :   0.134440E-01  0.517076E-03         3.1 %
  structure factors          :   0.688022E-03  0.264624E-04         0.2 %
  phase factors              :   0.209189E-04  0.804573E-06         0.0 %
  masking and packing        :   0.299552E-01  0.115212E-02         6.8 %
  queue fft                  :   0.134085E+00  0.515713E-02        30.5 %
  queue fft (serial)         :   0.567153E-01  0.218136E-02        12.9 %
  queue fft (message passing):   0.747966E-01  0.287679E-02        17.0 %
  non-local psp FFM          :   0.430529E-02  0.165588E-03         1.0 %
  non-local psp FMF          :   0.178292E-02  0.685740E-04         0.4 %
  non-local psp FFM A        :   0.425227E-03  0.163549E-04         0.1 %
  non-local psp FFM B        :   0.303227E-02  0.116626E-03         0.7 %

     >>>  JOB COMPLETED     AT Thu Jul  9 13:05:18 2020  <<<
          ****************************************************
          *                                                  *
          *               NWPW PSPW Calculation              *
          *                                                  *
          * [ (Grassmann/Stiefel manifold implementation)  ] *
          *                                                  *
          *      [ NorthWest Chemistry implementation ]      *
          *                                                  *
          *            version #5.10   06/12/02              *
          *                                                  *
          *    This code was developed by Eric J. Bylaska,   *
          *    and was based upon algorithms and code        *
          *    developed by the group of Prof. John H. Weare *
          *                                                  *
          ****************************************************
     >>>  JOB STARTED       AT Thu Jul  9 13:05:18 2020  <<<
          ================ input data ========================
 pseudopotential is not correctly formatted:C.vpp                                             

 Generated formatted_filename: ./C.vpp
 Error reading psi - bad grid
 nfft :                   24                   24                   24
 ngrid:                   28                   28                   28
 Error reading psi - bad grid
 nfft :                   24                   24                   24
 ngrid:                   28                   28                   28
 Error reading psi - bad grid

 Grid is being converted:
 ------------------------

 To turn off automatic grid conversion:

 set nwpw:psi_nogrid .false.

 old_filename: diamond-pspw.movecs                               
 new_filename: diamond-pspw.movecs                               
 converting  :  24x 24x 24 -->  28x 28x 28
converting .... psi:    1 spin: 1
converting .... psi:    2 spin: 1
converting .... psi:    3 spin: 1
converting .... psi:    4 spin: 1
converting .... psi:    5 spin: 1
converting .... psi:    6 spin: 1
converting .... psi:    7 spin: 1
converting .... psi:    8 spin: 1
converting .... psi:    9 spin: 1
converting .... psi:   10 spin: 1
converting .... psi:   11 spin: 1
converting .... psi:   12 spin: 1
converting .... psi:   13 spin: 1
converting .... psi:   14 spin: 1
converting .... psi:   15 spin: 1
converting .... psi:   16 spin: 1

 input psi filename:./diamond-pspw.movecs

 number of processors used:         2
 processor grid           :   2 x   1
 parallel mapping         :2d hilbert
 parallel mapping         :  balanced
 number of threads        :         1
 parallel io              :       off

 options:
      boundary conditions  = periodic    (version3)
      electron spin        = restricted
      exchange-correlation = PBE96 (White and Bird) parameterization

 elements involved in the cluster:
      1: C   valence charge:  4.0000  lmax=  2
             comment    : Parameterized (J.Phys.Chem., vol 100, page 6966) Hamman psp
             pseudpotential type            :   0
             highest angular component      :   2
             local potential used           :   2
             number of non-local projections:   4
             cutoff =   0.800   0.850   0.850


 total charge:   0.000

 atomic composition:
     C   :    8

 number of electrons: spin up=    16 (  16 per task)  down=    16 (  16 per task) (Fourier space)
 number of orbitals : spin up=    16 (  16 per task)  down=    16 (  16 per task) (Fourier space)

 supercell:
      cell_name:  cell_default                                      
      lattice:    a1=<   6.727   0.000   0.000 >
                  a2=<   0.000   6.727   0.000 >
                  a3=<   0.000   0.000   6.727 >
      reciprocal: b1=<   0.934   0.000  -0.000 >
                  b2=<  -0.000   0.934  -0.000 >
                  b3=<   0.000   0.000   0.934 >
      lattice:    a=       6.727 b=      6.727 c=       6.727
                  alpha=  90.000 beta=  90.000 gamma=  90.000
                  omega=       304.5

      density cutoff= 70.000  fft= 28x 28x 28(     4205 waves     2103 per task)
      wavefnc cutoff= 35.000  fft= 28x 28x 28(     1485 waves      743 per task)
      Ewald summation: cut radius=    3.00  and  8
                       Madelung Wigner-Seitz=    1.76011888 (alpha=    2.83729748 rs= 4.17336110)

 technical parameters:
      time step=      5.80     fictitious mass=  400000.0
      tolerance=0.100E-06 (energy)   0.100E-06 (density)
      maximum iterations =      1000 (   10 inner    100 outer )





== Energy Calculation ==


          ============ Grassmann lmbfgs iteration ============
     >>>  ITERATION STARTED AT Thu Jul  9 13:05:18 2020  <<<
    iter.           Energy         DeltaE       DeltaRho 
    ------------------------------------------------------
      10   -0.4505769182E+02   -0.25432E-06    0.31022E-03
      20   -0.4505769200E+02   -0.65149E-07    0.18723E-08
  *** tolerance ok. iteration terminated
     >>>  ITERATION ENDED   AT Thu Jul  9 13:05:20 2020  <<<


==  Summary Of Results  ==

 number of electrons: spin up=   16.00000  down=   16.00000 (real space)

 total     energy    :  -0.4505769200E+02 (   -0.56322E+01/ion)
 total orbital energy:   0.6105902467E+01 (    0.38162E+00/electron)
 hartree   energy    :   0.4294581547E+01 (    0.26841E+00/electron)
 exc-corr  energy    :  -0.1444674132E+02 (   -0.90292E+00/electron)
 ion-ion   energy    :  -0.5124621968E+02 (   -0.64058E+01/ion)

 kinetic (planewave) :   0.3477069384E+02 (    0.21732E+01/electron)
 V_local (planewave) :  -0.1730119480E+02 (   -0.10813E+01/electron)
 V_nl    (planewave) :  -0.1128811585E+01 (   -0.70551E-01/electron)
 V_Coul  (planewave) :   0.8589163095E+01 (    0.53682E+00/electron)
 V_xc.   (planewave) :  -0.1882394809E+02 (   -0.11765E+01/electron)
 Virial Coefficient  :  -0.8243951503E+00

 orbital energies:
     0.5036894E+00 (  13.706eV)
     0.5036894E+00 (  13.706eV)
     0.5036894E+00 (  13.706eV)
     0.2701295E+00 (   7.351eV)
     0.2701295E+00 (   7.351eV)
     0.2701295E+00 (   7.351eV)
     0.2701295E+00 (   7.351eV)
     0.2701294E+00 (   7.351eV)
     0.2701294E+00 (   7.351eV)
     0.3486895E-01 (   0.949eV)
     0.3486888E-01 (   0.949eV)
     0.3486888E-01 (   0.949eV)
     0.3486856E-01 (   0.949eV)
     0.3486854E-01 (   0.949eV)
     0.3486850E-01 (   0.949eV)
    -0.2881061E+00 (  -7.840eV)

 Total PSPW energy     :  -0.4505769200E+02


=== Spin Contamination ===

 <Sexact^2> =    0.0000000000000000     
 <S^2>      =    0.0000000000000000     



== Center of Charge ==

spin up     (   -0.0000,    0.0000,   -0.0000 )
spin down   (   -0.0000,    0.0000,   -0.0000 )
     total  (   -0.0000,    0.0000,   -0.0000 )
ionic       (    0.8409,    0.8409,    0.8409 )


== Molecular Dipole wrt Center of Mass ==

mu   =  (   26.9097,   26.9097,   26.9097 ) au
|mu| =    46.6090 au,     118.4613 Debye


Translation force removed: (   -0.00000   -0.00000   -0.00000)


          =============  Ion Gradients =================
 Ion Forces:
        1 C    (   -0.000000   -0.000001   -0.000001 )
        2 C    (    0.000000    0.000002    0.000000 )
        3 C    (   -0.000001    0.000001    0.000001 )
        4 C    (    0.000001   -0.000001   -0.000001 )
        5 C    (    0.000001   -0.000001   -0.000001 )
        6 C    (   -0.000000    0.000001    0.000001 )
        7 C    (   -0.000000    0.000001    0.000000 )
        8 C    (   -0.000000   -0.000001   -0.000000 )
        C.O.M. (    0.000000   -0.000000    0.000000 )
          ===============================================
          |F|       =   0.477895E-05
          |F|/nion  =   0.597369E-06
          max|Fatom|=   0.222404E-05 (   0.000eV/Angstrom)



 Outputing formatted_stress_filename: ./C.vpp2


======================
= Stress calculation =
======================


          ============= total gradient ==============
      S =  (   -0.04896   -0.00000    0.00000 )
           (   -0.00000   -0.04896   -0.00000 )
           (    0.00000   -0.00000   -0.04896 )
          ===================================================
          |S|      = 0.84800E-01
          pressure = -.490E-01 au
                   = -.144E+02 Mbar
                   = -.144E+04 GPa
                   = -.142E+08 atm


       dE/da     =    -0.04896
       dE/db     =    -0.04896
       dE/dc     =    -0.04896
       dE/dalpha =     0.00000
       dE/dbeta  =    -0.00000
       dE/dgamma =     0.00000


 output psi filename:./diamond-pspw.movecs


== Timing ==

cputime in seconds
  prologue    :   0.177750E+00
  main loop   :   0.130363E+01
  epilogue    :   0.107530E-01
  total       :   0.149214E+01
  cputime/step:   0.449529E-01       (      29 evalulations,      12 linesearches)


Time spent doing                        total          step       percent
  total time                 :   0.149345E+01  0.514983E-01       100.0 %
  i/o time                   :   0.128610E+00  0.443482E-02         8.6 %
  FFTs                       :   0.350817E+00  0.120971E-01        23.5 %
  dot products               :   0.668596E-01  0.230550E-02         4.5 %
  geodesic                   :   0.534046E-01  0.184154E-02         3.6 %
  ffm_dgemm                  :   0.222100E-01  0.765863E-03         1.5 %
  fmf_dgemm                  :   0.310637E-01  0.107116E-02         2.1 %
  mmm_dgemm                  :   0.231954E-03  0.799842E-05         0.0 %
  m_diagonalize              :   0.284952E-02  0.982595E-04         0.2 %
  exchange correlation       :   0.401637E+00  0.138496E-01        26.9 %
  local pseudopotentials     :   0.754078E-03  0.260027E-04         0.1 %
  non-local pseudopotentials :   0.415890E-01  0.143410E-02         2.8 %
  hartree potentials         :   0.906542E-03  0.312601E-04         0.1 %
  ion-ion interaction        :   0.816506E-01  0.281554E-02         5.5 %
  structure factors          :   0.141884E-02  0.489255E-04         0.1 %
  phase factors              :   0.209888E-04  0.723750E-06         0.0 %
  masking and packing        :   0.649821E-01  0.224076E-02         4.4 %
  queue fft                  :   0.331651E+00  0.114362E-01        22.2 %
  queue fft (serial)         :   0.156323E+00  0.539043E-02        10.5 %
  queue fft (message passing):   0.171043E+00  0.589805E-02        11.5 %
  non-local psp FFM          :   0.679599E-02  0.234344E-03         0.5 %
  non-local psp FMF          :   0.310165E-02  0.106953E-03         0.2 %
  non-local psp FFM A        :   0.739378E-03  0.254958E-04         0.0 %
  non-local psp FFM B        :   0.491296E-02  0.169412E-03         0.3 %

     >>>  JOB COMPLETED     AT Thu Jul  9 13:05:20 2020  <<<

@ Step       Energy      Delta E   Gmax     Grms     Xrms     Xmax   Walltime
@ ---- ---------------- -------- -------- -------- -------- -------- --------
@    0     -45.05769200  0.0D+00  0.04896  0.01476  0.00000  0.00000      3.5
                                                                    

          ****************************************************
          *                                                  *
          *               NWPW PSPW Calculation              *
          *                                                  *
          * [ (Grassmann/Stiefel manifold implementation)  ] *
          *                                                  *
          *      [ NorthWest Chemistry implementation ]      *
          *                                                  *
          *            version #5.10   06/12/02              *
          *                                                  *
          *    This code was developed by Eric J. Bylaska,   *
          *    and was based upon algorithms and code        *
          *    developed by the group of Prof. John H. Weare *
          *                                                  *
          ****************************************************
     >>>  JOB STARTED       AT Thu Jul  9 13:05:20 2020  <<<
          ================ input data ========================
 pseudopotential is not correctly formatted:C.vpp                                             

 Generated formatted_filename: ./C.vpp
 Error reading psi - bad unitcell
  - Ignored if the following  parameter is set
  - set nwpw:psi_nolattice .true.
 Error reading psi - bad unitcell
  - Ignored if the following  parameter is set
  - set nwpw:psi_nolattice .true.
 Error reading psi - bad unitcell
  - Ignored if the following  parameter is set
  - set nwpw:psi_nolattice .true.

 input psi filename:./diamond-pspw.movecs

 number of processors used:         2
 processor grid           :   2 x   1
 parallel mapping         :2d hilbert
 parallel mapping         :  balanced
 number of threads        :         1
 parallel io              :       off

 options:
      boundary conditions  = periodic    (version3)
      electron spin        = restricted
      exchange-correlation = PBE96 (White and Bird) parameterization

 elements involved in the cluster:
      1: C   valence charge:  4.0000  lmax=  2
             comment    : Parameterized (J.Phys.Chem., vol 100, page 6966) Hamman psp
             pseudpotential type            :   0
             highest angular component      :   2
             local potential used           :   2
             number of non-local projections:   4
             cutoff =   0.800   0.850   0.850


 total charge:   0.000

 atomic composition:
     C   :    8

 number of electrons: spin up=    16 (  16 per task)  down=    16 (  16 per task) (Fourier space)
 number of orbitals : spin up=    16 (  16 per task)  down=    16 (  16 per task) (Fourier space)

 supercell:
      cell_name:  cell_default                                      
      lattice:    a1=<   6.747   0.000  -0.000 >
                  a2=<   0.000   6.747   0.000 >
                  a3=<  -0.000   0.000   6.747 >
      reciprocal: b1=<   0.931  -0.000   0.000 >
                  b2=<  -0.000   0.931  -0.000 >
                  b3=<   0.000  -0.000   0.931 >
      lattice:    a=       6.747 b=      6.747 c=       6.747
                  alpha=  90.000 beta=  90.000 gamma=  90.000
                  omega=       307.1

      density cutoff= 70.000  fft= 28x 28x 28(     4205 waves     2103 per task)
      wavefnc cutoff= 35.000  fft= 28x 28x 28(     1485 waves      743 per task)
      Ewald summation: cut radius=    3.00  and  8
                       Madelung Wigner-Seitz=    1.76011888 (alpha=    2.83729748 rs= 4.18551032)

 technical parameters:
      time step=      5.80     fictitious mass=  400000.0
      tolerance=0.100E-06 (energy)   0.100E-06 (density)
      maximum iterations =      1000 (   10 inner    100 outer )





== Energy Calculation ==


          ============ Grassmann lmbfgs iteration ============
     >>>  ITERATION STARTED AT Thu Jul  9 13:05:20 2020  <<<
    iter.           Energy         DeltaE       DeltaRho 
    ------------------------------------------------------
      10   -0.4506038362E+02   -0.14276E-05    0.56954E-04
      20   -0.4506038559E+02   -0.81781E-07    0.55390E-08
  *** tolerance ok. iteration terminated
     >>>  ITERATION ENDED   AT Thu Jul  9 13:05:21 2020  <<<


==  Summary Of Results  ==

 number of electrons: spin up=   16.00000  down=   16.00000 (real space)

 total     energy    :  -0.4506038559E+02 (   -0.56325E+01/ion)
 total orbital energy:   0.5981818778E+01 (    0.37386E+00/electron)
 hartree   energy    :   0.4312703089E+01 (    0.26954E+00/electron)
 exc-corr  energy    :  -0.1441830912E+02 (   -0.90114E+00/electron)
 ion-ion   energy    :  -0.5109746802E+02 (   -0.63872E+01/ion)

 kinetic (planewave) :   0.3464824745E+02 (    0.21655E+01/electron)
 V_local (planewave) :  -0.1739778641E+02 (   -0.10874E+01/electron)
 V_nl    (planewave) :  -0.1107772583E+01 (   -0.69236E-01/electron)
 V_Coul  (planewave) :   0.8625406177E+01 (    0.53909E+00/electron)
 V_xc.   (planewave) :  -0.1878627586E+02 (   -0.11741E+01/electron)
 Virial Coefficient  :  -0.8273558053E+00

 orbital energies:
     0.4980050E+00 (  13.552eV)
     0.4980050E+00 (  13.552eV)
     0.4980050E+00 (  13.552eV)
     0.2663561E+00 (   7.248eV)
     0.2663561E+00 (   7.248eV)
     0.2663560E+00 (   7.248eV)
     0.2663560E+00 (   7.248eV)
     0.2663560E+00 (   7.248eV)
     0.2663560E+00 (   7.248eV)
     0.3138479E-01 (   0.854eV)
     0.3138469E-01 (   0.854eV)
     0.3138468E-01 (   0.854eV)
     0.3138456E-01 (   0.854eV)
     0.3138454E-01 (   0.854eV)
     0.3138446E-01 (   0.854eV)
    -0.2895495E+00 (  -7.879eV)

 Total PSPW energy     :  -0.4506038559E+02


=== Spin Contamination ===

 <Sexact^2> =    0.0000000000000000     
 <S^2>      =    0.0000000000000000     



== Center of Charge ==

spin up     (   -0.0000,    0.0000,    0.0000 )
spin down   (   -0.0000,    0.0000,    0.0000 )
     total  (   -0.0000,    0.0000,    0.0000 )
ionic       (    0.0000,    0.0000,   -0.0000 )


== Molecular Dipole wrt Center of Mass ==

mu   =  (    0.0000,   -0.0000,   -0.0000 ) au
|mu| =     0.0000 au,       0.0000 Debye

 output psi filename:./diamond-pspw.movecs


== Timing ==

cputime in seconds
  prologue    :   0.170950E+00
  main loop   :   0.135423E+01
  epilogue    :   0.109445E-01
  total       :   0.153612E+01
  cputime/step:   0.398301E-01       (      34 evalulations,      15 linesearches)


Time spent doing                        total          step       percent
  total time                 :   0.153741E+01  0.452180E-01       100.0 %
  i/o time                   :   0.127436E+00  0.374812E-02         8.3 %
  FFTs                       :   0.395295E+00  0.116263E-01        25.7 %
  dot products               :   0.135856E+00  0.399577E-02         8.8 %
  geodesic                   :   0.680614E-01  0.200181E-02         4.4 %
  ffm_dgemm                  :   0.552515E-01  0.162505E-02         3.6 %
  fmf_dgemm                  :   0.142803E-01  0.420010E-03         0.9 %
  mmm_dgemm                  :   0.308336E-03  0.906870E-05         0.0 %
  m_diagonalize              :   0.150179E-02  0.441702E-04         0.1 %
  exchange correlation       :   0.455901E+00  0.134088E-01        29.7 %
  local pseudopotentials     :   0.992119E-04  0.291800E-05         0.0 %
  non-local pseudopotentials :   0.237127E-01  0.697432E-03         1.5 %
  hartree potentials         :   0.106072E-02  0.311977E-04         0.1 %
  ion-ion interaction        :   0.298829E-01  0.878909E-03         1.9 %
  structure factors          :   0.154214E-02  0.453572E-04         0.1 %
  phase factors              :   0.631204E-05  0.185648E-06         0.0 %
  masking and packing        :   0.119418E+00  0.351228E-02         7.8 %
  queue fft                  :   0.416471E+00  0.122491E-01        27.1 %
  queue fft (serial)         :   0.187523E+00  0.551539E-02        12.2 %
  queue fft (message passing):   0.223884E+00  0.658484E-02        14.6 %
  non-local psp FFM          :   0.178586E-01  0.525253E-03         1.2 %
  non-local psp FMF          :   0.366837E-02  0.107893E-03         0.2 %
  non-local psp FFM A        :   0.866239E-03  0.254776E-04         0.1 %
  non-local psp FFM B        :   0.582035E-02  0.171187E-03         0.4 %

     >>>  JOB COMPLETED     AT Thu Jul  9 13:05:21 2020  <<<
 Line search: 
     step= 1.00 grad=-2.9D-03 hess= 1.8D-04 energy=    -45.060386 mode=restrict
 new step= 4.00                   predicted energy=    -45.066271

          --------
          Step   1
          --------


                         Geometry "geometry" -> "geometry"
                         ---------------------------------

 Output coordinates in angstroms (scale by  1.889725989 to convert to a.u.)

  No.       Tag          Charge          X              Y              Z
 ---- ---------------- ---------- -------------- -------------- --------------
    1 C                    6.0000     1.80072468     1.80072367     1.80072460
    2 C                    6.0000     0.00000079     0.00000698     1.80072989
    3 C                    6.0000     3.60145243     1.80073050     0.00000682
    4 C                    6.0000     1.80073126     3.60144800     3.60144784
    5 C                    6.0000     2.70109548     2.70108487     2.70108404
    6 C                    6.0000     0.90036257     0.90036779     2.70109791
    7 C                    6.0000     0.90036327     2.70109702     0.90036589
    8 C                    6.0000     2.70108785     0.90035949     0.90036127

      Lattice Parameters 
      ------------------ 

      lattice vectors in angstroms (scale by  1.889725989 to convert to a.u.)

      a1=<   3.601   0.000  -0.000 >
      a2=<   0.000   3.601   0.000 >
      a3=<  -0.000   0.000   3.601 >
      a=       3.601 b=      3.601 c=       3.601
      alpha=  90.000 beta=  90.000 gamma=  90.000
      omega=    46.7

      reciprocal lattice vectors in a.u.

      b1=<   0.923  -0.000   0.000 >
      b2=<  -0.000   0.923  -0.000 >
      b3=<   0.000  -0.000   0.923 >

      Atomic Mass 
      ----------- 

      C                 12.000000


          ****************************************************
          *                                                  *
          *               NWPW PSPW Calculation              *
          *                                                  *
          * [ (Grassmann/Stiefel manifold implementation)  ] *
          *                                                  *
          *      [ NorthWest Chemistry implementation ]      *
          *                                                  *
          *            version #5.10   06/12/02              *
          *                                                  *
          *    This code was developed by Eric J. Bylaska,   *
          *    and was based upon algorithms and code        *
          *    developed by the group of Prof. John H. Weare *
          *                                                  *
          ****************************************************
     >>>  JOB STARTED       AT Thu Jul  9 13:05:21 2020  <<<
          ================ input data ========================
 pseudopotential is not correctly formatted:C.vpp                                             

 Generated formatted_filename: ./C.vpp
 Error reading psi - bad unitcell
  - Ignored if the following  parameter is set
  - set nwpw:psi_nolattice .true.
 Error reading psi - bad unitcell
  - Ignored if the following  parameter is set
  - set nwpw:psi_nolattice .true.
 Error reading psi - bad unitcell
  - Ignored if the following  parameter is set
  - set nwpw:psi_nolattice .true.

 input psi filename:./diamond-pspw.movecs

 number of processors used:         2
 processor grid           :   2 x   1
 parallel mapping         :2d hilbert
 parallel mapping         :  balanced
 number of threads        :         1
 parallel io              :       off

 options:
      boundary conditions  = periodic    (version3)
      electron spin        = restricted
      exchange-correlation = PBE96 (White and Bird) parameterization

 elements involved in the cluster:
      1: C   valence charge:  4.0000  lmax=  2
             comment    : Parameterized (J.Phys.Chem., vol 100, page 6966) Hamman psp
             pseudpotential type            :   0
             highest angular component      :   2
             local potential used           :   2
             number of non-local projections:   4
             cutoff =   0.800   0.850   0.850


 total charge:   0.000

 atomic composition:
     C   :    8

 number of electrons: spin up=    16 (  16 per task)  down=    16 (  16 per task) (Fourier space)
 number of orbitals : spin up=    16 (  16 per task)  down=    16 (  16 per task) (Fourier space)

 supercell:
      cell_name:  cell_default                                      
      lattice:    a1=<   6.806   0.000  -0.000 >
                  a2=<   0.000   6.806   0.000 >
                  a3=<  -0.000   0.000   6.806 >
      reciprocal: b1=<   0.923  -0.000   0.000 >
                  b2=<  -0.000   0.923  -0.000 >
                  b3=<   0.000  -0.000   0.923 >
      lattice:    a=       6.806 b=      6.806 c=       6.806
                  alpha=  90.000 beta=  90.000 gamma=  90.000
                  omega=       315.2

      density cutoff= 70.000  fft= 28x 28x 28(     4415 waves     2208 per task)
      wavefnc cutoff= 35.000  fft= 28x 28x 28(     1560 waves      780 per task)
      Ewald summation: cut radius=    3.00  and  8
                       Madelung Wigner-Seitz=    1.76011888 (alpha=    2.83729748 rs= 4.22195799)

 technical parameters:
      time step=      5.80     fictitious mass=  400000.0
      tolerance=0.100E-06 (energy)   0.100E-06 (density)
      maximum iterations =      1000 (   10 inner    100 outer )





== Energy Calculation ==


          ============ Grassmann lmbfgs iteration ============
     >>>  ITERATION STARTED AT Thu Jul  9 13:05:21 2020  <<<
    iter.           Energy         DeltaE       DeltaRho 
    ------------------------------------------------------
      10   -0.4506921992E+02   -0.19650E-04    0.53507E-03
      20   -0.4506924434E+02   -0.61845E-07    0.94430E-07
  *** tolerance ok. iteration terminated
     >>>  ITERATION ENDED   AT Thu Jul  9 13:05:23 2020  <<<


==  Summary Of Results  ==

 number of electrons: spin up=   16.00000  down=   16.00000 (real space)

 total     energy    :  -0.4506924434E+02 (   -0.56337E+01/ion)
 total orbital energy:   0.5615586001E+01 (    0.35097E+00/electron)
 hartree   energy    :   0.4369342326E+01 (    0.27308E+00/electron)
 exc-corr  energy    :  -0.1433535430E+02 (   -0.89596E+00/electron)
 ion-ion   energy    :  -0.5065634964E+02 (   -0.63320E+01/ion)

 kinetic (planewave) :   0.3429611469E+02 (    0.21435E+01/electron)
 V_local (planewave) :  -0.1769399094E+02 (   -0.11059E+01/electron)
 V_nl    (planewave) :  -0.1049006481E+01 (   -0.65563E-01/electron)
 V_Coul  (planewave) :   0.8738684653E+01 (    0.54617E+00/electron)
 V_xc.   (planewave) :  -0.1867621592E+02 (   -0.11673E+01/electron)
 Virial Coefficient  :  -0.8362617442E+00

 orbital energies:
     0.4813477E+00 (  13.098eV)
     0.4813477E+00 (  13.098eV)
     0.4813477E+00 (  13.098eV)
     0.2551365E+00 (   6.943eV)
     0.2551364E+00 (   6.943eV)
     0.2551363E+00 (   6.943eV)
     0.2551363E+00 (   6.943eV)
     0.2551362E+00 (   6.943eV)
     0.2551361E+00 (   6.943eV)
     0.2110971E-01 (   0.574eV)
     0.2110941E-01 (   0.574eV)
     0.2110939E-01 (   0.574eV)
     0.2110936E-01 (   0.574eV)
     0.2110929E-01 (   0.574eV)
     0.2110903E-01 (   0.574eV)
    -0.2937242E+00 (  -7.993eV)

 Total PSPW energy     :  -0.4506924434E+02


=== Spin Contamination ===

 <Sexact^2> =    0.0000000000000000     
 <S^2>      =    0.0000000000000000     



== Center of Charge ==

spin up     (   -0.0000,    0.0000,    0.0000 )
spin down   (   -0.0000,    0.0000,    0.0000 )
     total  (   -0.0000,    0.0000,    0.0000 )
ionic       (    0.0000,    0.0000,   -0.0000 )


== Molecular Dipole wrt Center of Mass ==

mu   =  (    0.0000,   -0.0000,   -0.0000 ) au
|mu| =     0.0000 au,       0.0001 Debye


Translation force removed: (   -0.00000   -0.00000   -0.00000)


          =============  Ion Gradients =================
 Ion Forces:
        1 C    (    0.000001    0.000002    0.000002 )
        2 C    (   -0.000000   -0.000005   -0.000002 )
        3 C    (    0.000002   -0.000002   -0.000004 )
        4 C    (   -0.000003    0.000004    0.000004 )
        5 C    (   -0.000003    0.000004    0.000004 )
        6 C    (    0.000001   -0.000003   -0.000005 )
        7 C    (    0.000001   -0.000004   -0.000001 )
        8 C    (    0.000002    0.000003    0.000002 )
        C.O.M. (    0.000000    0.000000    0.000000 )
          ===============================================
          |F|       =   0.146018E-04
          |F|/nion  =   0.182523E-05
          max|Fatom|=   0.677787E-05 (   0.000eV/Angstrom)


 pseudopotential is not correctly formatted:C.vpp2                                            

 Outputing formatted_stress_filename: ./C.vpp2


======================
= Stress calculation =
======================


          ============= total gradient ==============
      S =  (   -0.02627    0.00000   -0.00000 )
           (    0.00000   -0.02627    0.00000 )
           (   -0.00000    0.00000   -0.02627 )
          ===================================================
          |S|      = 0.45501E-01
          pressure = -.263E-01 au
                   = -.773E+01 Mbar
                   = -.773E+03 GPa
                   = -.763E+07 atm


       dE/da     =    -0.02627
       dE/db     =    -0.02627
       dE/dc     =    -0.02627
       dE/dalpha =    -0.00000
       dE/dbeta  =     0.00000
       dE/dgamma =    -0.00000


 output psi filename:./diamond-pspw.movecs


== Timing ==

cputime in seconds
  prologue    :   0.171784E+00
  main loop   :   0.181412E+01
  epilogue    :   0.107430E-01
  total       :   0.199664E+01
  cputime/step:   0.421888E-01       (      43 evalulations,      19 linesearches)


Time spent doing                        total          step       percent
  total time                 :   0.199791E+01  0.464631E-01       100.0 %
  i/o time                   :   0.127899E+00  0.297440E-02         6.4 %
  FFTs                       :   0.360188E+00  0.837647E-02        18.0 %
  dot products               :   0.216760E+00  0.504093E-02        10.8 %
  geodesic                   :   0.169733E+00  0.394729E-02         8.5 %
  ffm_dgemm                  :   0.771267E-01  0.179364E-02         3.9 %
  fmf_dgemm                  :   0.539614E-01  0.125492E-02         2.7 %
  mmm_dgemm                  :   0.193413E-01  0.449798E-03         1.0 %
  m_diagonalize              :   0.196149E-02  0.456160E-04         0.1 %
  exchange correlation       :   0.385851E+00  0.897327E-02        19.3 %
  local pseudopotentials     :   0.907056E-03  0.210943E-04         0.0 %
  non-local pseudopotentials :   0.258669E-01  0.601556E-03         1.3 %
  hartree potentials         :   0.142355E-02  0.331057E-04         0.1 %
  ion-ion interaction        :   0.628682E-01  0.146205E-02         3.1 %
  structure factors          :   0.198950E-02  0.462676E-04         0.1 %
  phase factors              :   0.702450E-05  0.163360E-06         0.0 %
  masking and packing        :   0.225701E+00  0.524886E-02        11.3 %
  queue fft                  :   0.660869E+00  0.153690E-01        33.1 %
  queue fft (serial)         :   0.266192E+00  0.619050E-02        13.3 %
  queue fft (message passing):   0.388069E+00  0.902485E-02        19.4 %
  non-local psp FFM          :   0.107383E-01  0.249727E-03         0.5 %
  non-local psp FMF          :   0.474856E-02  0.110432E-03         0.2 %
  non-local psp FFM A        :   0.117489E-02  0.273230E-04         0.1 %
  non-local psp FFM B        :   0.780723E-02  0.181564E-03         0.4 %

     >>>  JOB COMPLETED     AT Thu Jul  9 13:05:23 2020  <<<

  Step       Energy      Delta E   Gmax     Grms     Xrms     Xmax   Walltime
  ---- ---------------- -------- -------- -------- -------- -------- --------
@    1     -45.06924434 -1.2D-02  0.02627  0.00792  0.02362  0.07834      7.0
                                                                    

          ****************************************************
          *                                                  *
          *               NWPW PSPW Calculation              *
          *                                                  *
          * [ (Grassmann/Stiefel manifold implementation)  ] *
          *                                                  *
          *      [ NorthWest Chemistry implementation ]      *
          *                                                  *
          *            version #5.10   06/12/02              *
          *                                                  *
          *    This code was developed by Eric J. Bylaska,   *
          *    and was based upon algorithms and code        *
          *    developed by the group of Prof. John H. Weare *
          *                                                  *
          ****************************************************
     >>>  JOB STARTED       AT Thu Jul  9 13:05:23 2020  <<<
          ================ input data ========================
 pseudopotential is not correctly formatted:C.vpp                                             

 Generated formatted_filename: ./C.vpp
 Error reading psi - bad unitcell
  - Ignored if the following  parameter is set
  - set nwpw:psi_nolattice .true.
 Error reading psi - bad unitcell
  - Ignored if the following  parameter is set
  - set nwpw:psi_nolattice .true.
 Error reading psi - bad unitcell
  - Ignored if the following  parameter is set
  - set nwpw:psi_nolattice .true.

 input psi filename:./diamond-pspw.movecs

 number of processors used:         2
 processor grid           :   2 x   1
 parallel mapping         :2d hilbert
 parallel mapping         :  balanced
 number of threads        :         1
 parallel io              :       off

 options:
      boundary conditions  = periodic    (version3)
      electron spin        = restricted
      exchange-correlation = PBE96 (White and Bird) parameterization

 elements involved in the cluster:
      1: C   valence charge:  4.0000  lmax=  2
             comment    : Parameterized (J.Phys.Chem., vol 100, page 6966) Hamman psp
             pseudpotential type            :   0
             highest angular component      :   2
             local potential used           :   2
             number of non-local projections:   4
             cutoff =   0.800   0.850   0.850


 total charge:   0.000

 atomic composition:
     C   :    8

 number of electrons: spin up=    16 (  16 per task)  down=    16 (  16 per task) (Fourier space)
 number of orbitals : spin up=    16 (  16 per task)  down=    16 (  16 per task) (Fourier space)

 supercell:
      cell_name:  cell_default                                      
      lattice:    a1=<   6.818   0.000  -0.000 >
                  a2=<   0.000   6.818   0.000 >
                  a3=<  -0.000   0.000   6.818 >
      reciprocal: b1=<   0.922  -0.000   0.000 >
                  b2=<  -0.000   0.922  -0.000 >
                  b3=<   0.000  -0.000   0.922 >
      lattice:    a=       6.818 b=      6.818 c=       6.818
                  alpha=  90.000 beta=  90.000 gamma=  90.000
                  omega=       317.0

      density cutoff= 70.000  fft= 28x 28x 28(     4415 waves     2208 per task)
      wavefnc cutoff= 35.000  fft= 28x 28x 28(     1560 waves      780 per task)
      Ewald summation: cut radius=    3.00  and  8
                       Madelung Wigner-Seitz=    1.76011888 (alpha=    2.83729748 rs= 4.22965228)

 technical parameters:
      time step=      5.80     fictitious mass=  400000.0
      tolerance=0.100E-06 (energy)   0.100E-06 (density)
[...]
 new step= 0.29                   predicted energy=    -45.076883

          --------
          Step  11
          --------


                         Geometry "geometry" -> "geometry"
                         ---------------------------------

 Output coordinates in angstroms (scale by  1.889725989 to convert to a.u.)

  No.       Tag          Charge          X              Y              Z
 ---- ---------------- ---------- -------------- -------------- --------------
    1 C                    6.0000     1.82718349     1.82718324     1.82718244
    2 C                    6.0000     3.65434930     3.65433780     1.82716980
    3 C                    6.0000     0.00000312     1.82716922     3.65433676
    4 C                    6.0000     1.82716886     0.00001467     0.00001546
    5 C                    6.0000     2.74075591     2.74077730     2.74078023
    6 C                    6.0000     0.91358890     0.91357928     2.74074821
    7 C                    6.0000     0.91358737     2.74075127     0.91358251
    8 C                    6.0000     2.74077266     0.91359699     0.91359363

      Lattice Parameters 
      ------------------ 

      lattice vectors in angstroms (scale by  1.889725989 to convert to a.u.)

      a1=<   3.654   0.000  -0.000 >
      a2=<   0.000   3.654   0.000 >
      a3=<  -0.000   0.000   3.654 >
      a=       3.654 b=      3.654 c=       3.654
      alpha=  90.000 beta=  90.000 gamma=  90.000
      omega=    48.8

      reciprocal lattice vectors in a.u.

      b1=<   0.910  -0.000   0.000 >
      b2=<  -0.000   0.910  -0.000 >
      b3=<   0.000  -0.000   0.910 >

      Atomic Mass 
      ----------- 

      C                 12.000000


          ****************************************************
          *                                                  *
          *               NWPW PSPW Calculation              *
          *                                                  *
          * [ (Grassmann/Stiefel manifold implementation)  ] *
          *                                                  *
          *      [ NorthWest Chemistry implementation ]      *
          *                                                  *
          *            version #5.10   06/12/02              *
          *                                                  *
          *    This code was developed by Eric J. Bylaska,   *
          *    and was based upon algorithms and code        *
          *    developed by the group of Prof. John H. Weare *
          *                                                  *
          ****************************************************
     >>>  JOB STARTED       AT Thu Jul  9 13:05:43 2020  <<<
          ================ input data ========================
 pseudopotential is not correctly formatted:C.vpp                                             

 Generated formatted_filename: ./C.vpp
 Error reading psi - bad unitcell
  - Ignored if the following  parameter is set
  - set nwpw:psi_nolattice .true.
 Error reading psi - bad unitcell
  - Ignored if the following  parameter is set
  - set nwpw:psi_nolattice .true.
 Error reading psi - bad unitcell
  - Ignored if the following  parameter is set
  - set nwpw:psi_nolattice .true.

 input psi filename:./diamond-pspw.movecs

 number of processors used:         2
 processor grid           :   2 x   1
 parallel mapping         :2d hilbert
 parallel mapping         :  balanced
 number of threads        :         1
 parallel io              :       off

 options:
      boundary conditions  = periodic    (version3)
      electron spin        = restricted
      exchange-correlation = PBE96 (White and Bird) parameterization

 elements involved in the cluster:
      1: C   valence charge:  4.0000  lmax=  2
             comment    : Parameterized (J.Phys.Chem., vol 100, page 6966) Hamman psp
             pseudpotential type            :   0
             highest angular component      :   2
             local potential used           :   2
             number of non-local projections:   4
             cutoff =   0.800   0.850   0.850


 total charge:   0.000

 atomic composition:
     C   :    8

 number of electrons: spin up=    16 (  16 per task)  down=    16 (  16 per task) (Fourier space)
 number of orbitals : spin up=    16 (  16 per task)  down=    16 (  16 per task) (Fourier space)

 supercell:
      cell_name:  cell_default                                      
      lattice:    a1=<   6.906   0.000  -0.000 >
                  a2=<   0.000   6.906   0.000 >
                  a3=<  -0.000   0.000   6.906 >
      reciprocal: b1=<   0.910  -0.000   0.000 >
                  b2=<  -0.000   0.910  -0.000 >
                  b3=<   0.000  -0.000   0.910 >
      lattice:    a=       6.906 b=      6.906 c=       6.906
                  alpha=  90.000 beta=  90.000 gamma=  90.000
                  omega=       329.3

      density cutoff= 70.000  fft= 28x 28x 28(     4547 waves     2274 per task)
      wavefnc cutoff= 35.000  fft= 28x 28x 28(     1620 waves      810 per task)
      Ewald summation: cut radius=    3.00  and  8
                       Madelung Wigner-Seitz=    1.76011888 (alpha=    2.83729748 rs= 4.28396960)

 technical parameters:
      time step=      5.80     fictitious mass=  400000.0
      tolerance=0.100E-06 (energy)   0.100E-06 (density)
      maximum iterations =      1000 (   10 inner    100 outer )





== Energy Calculation ==


          ============ Grassmann lmbfgs iteration ============
     >>>  ITERATION STARTED AT Thu Jul  9 13:05:44 2020  <<<
    iter.           Energy         DeltaE       DeltaRho 
    ------------------------------------------------------
      10   -0.4507688308E+02   -0.27857E-07    0.30684E-07
  *** tolerance ok. iteration terminated
     >>>  ITERATION ENDED   AT Thu Jul  9 13:05:44 2020  <<<


==  Summary Of Results  ==

 number of electrons: spin up=   16.00000  down=   16.00000 (real space)

 total     energy    :  -0.4507688308E+02 (   -0.56346E+01/ion)
 total orbital energy:   0.5015227506E+01 (    0.31345E+00/electron)
 hartree   energy    :   0.4465023010E+01 (    0.27906E+00/electron)
 exc-corr  energy    :  -0.1419806789E+02 (   -0.88738E+00/electron)
 ion-ion   energy    :  -0.4992308530E+02 (   -0.62404E+01/ion)

 kinetic (planewave) :   0.3371824640E+02 (    0.21074E+01/electron)
 V_local (planewave) :  -0.1818949222E+02 (   -0.11368E+01/electron)
 V_nl    (planewave) :  -0.9495070841E+00 (   -0.59344E-01/electron)
 V_Coul  (planewave) :   0.8930046020E+01 (    0.55813E+00/electron)
 V_xc.   (planewave) :  -0.1849406561E+02 (   -0.11559E+01/electron)
 Virial Coefficient  :  -0.8512607255E+00

 orbital energies:
     0.4534066E+00 (  12.338eV)
     0.4534066E+00 (  12.338eV)
     0.4534066E+00 (  12.338eV)
     0.2370135E+00 (   6.450eV)
     0.2370135E+00 (   6.450eV)
     0.2370135E+00 (   6.450eV)
     0.2370135E+00 (   6.450eV)
     0.2370135E+00 (   6.450eV)
     0.2370135E+00 (   6.450eV)
     0.4311902E-02 (   0.117eV)
     0.4311898E-02 (   0.117eV)
     0.4311891E-02 (   0.117eV)
     0.4311884E-02 (   0.117eV)
     0.4311881E-02 (   0.117eV)
     0.4311863E-02 (   0.117eV)
    -0.3005585E+00 (  -8.179eV)

 Total PSPW energy     :  -0.4507688308E+02


=== Spin Contamination ===

 <Sexact^2> =    0.0000000000000000     
 <S^2>      =    0.0000000000000000     



== Center of Charge ==

spin up     (    0.0000,    0.0000,    0.0000 )
spin down   (    0.0000,    0.0000,    0.0000 )
     total  (    0.0000,    0.0000,    0.0000 )
ionic       (   -0.0000,   -0.0000,   -0.0000 )


== Molecular Dipole wrt Center of Mass ==

mu   =  (   -0.0000,   -0.0000,   -0.0000 ) au
|mu| =     0.0000 au,       0.0000 Debye


Translation force removed: (   -0.00000    0.00000   -0.00000)


          =============  Ion Gradients =================
 Ion Forces:
        1 C    (    0.000020    0.000019    0.000017 )
        2 C    (   -0.000009   -0.000040   -0.000017 )
        3 C    (    0.000009   -0.000019   -0.000042 )
        4 C    (   -0.000020    0.000040    0.000042 )
        5 C    (   -0.000023    0.000035    0.000044 )
        6 C    (    0.000002   -0.000024   -0.000044 )
        7 C    (   -0.000002   -0.000036   -0.000015 )
        8 C    (    0.000023    0.000024    0.000015 )
        C.O.M. (    0.000000    0.000000    0.000000 )
          ===============================================
          |F|       =   0.134326E-03
          |F|/nion  =   0.167908E-04
          max|Fatom|=   0.614041E-04 (   0.003eV/Angstrom)


 pseudopotential is not correctly formatted:C.vpp2                                            

 Outputing formatted_stress_filename: ./C.vpp2


======================
= Stress calculation =
======================


          ============= total gradient ==============
      S =  (    0.00001   -0.00000    0.00000 )
           (   -0.00000    0.00001   -0.00000 )
           (    0.00000   -0.00000    0.00001 )
          ===================================================
          |S|      = 0.10766E-04
          pressure = 0.622E-05 au
                   = 0.183E-02 Mbar
                   = 0.183E+00 GPa
                   = 0.180E+04 atm


       dE/da     =     0.00001
       dE/db     =     0.00001
       dE/dc     =     0.00001
       dE/dalpha =     0.00000
       dE/dbeta  =    -0.00000
       dE/dgamma =     0.00000


 output psi filename:./diamond-pspw.movecs


== Timing ==

cputime in seconds
  prologue    :   0.171232E+00
  main loop   :   0.341735E+00
  epilogue    :   0.107052E-01
  total       :   0.523672E+00
  cputime/step:   0.427168E-01       (       8 evalulations,       3 linesearches)


Time spent doing                        total          step       percent
  total time                 :   0.524906E+00  0.656132E-01       100.0 %
  i/o time                   :   0.127139E+00  0.158924E-01        24.2 %
  FFTs                       :   0.302162E-01  0.377703E-02         5.8 %
  dot products               :   0.112118E-01  0.140148E-02         2.1 %
  geodesic                   :   0.527804E-02  0.659755E-03         1.0 %
  ffm_dgemm                  :   0.122119E-02  0.152649E-03         0.2 %
  fmf_dgemm                  :   0.324405E-02  0.405507E-03         0.6 %
  mmm_dgemm                  :   0.487408E-04  0.609260E-05         0.0 %
  m_diagonalize              :   0.416449E-03  0.520562E-04         0.1 %
  exchange correlation       :   0.452617E-01  0.565771E-02         8.6 %
  local pseudopotentials     :   0.834319E-03  0.104290E-03         0.2 %
  non-local pseudopotentials :   0.109808E-01  0.137260E-02         2.1 %
  hartree potentials         :   0.288143E-03  0.360179E-04         0.1 %
  ion-ion interaction        :   0.518439E-01  0.648048E-02         9.9 %
  structure factors          :   0.731048E-03  0.913810E-04         0.1 %
  phase factors              :   0.668457E-05  0.835571E-06         0.0 %
  masking and packing        :   0.123626E-01  0.154532E-02         2.4 %
  queue fft                  :   0.704952E-01  0.881190E-02        13.4 %
  queue fft (serial)         :   0.428600E-01  0.535750E-02         8.2 %
  queue fft (message passing):   0.264453E-01  0.330567E-02         5.0 %
  non-local psp FFM          :   0.200187E-02  0.250234E-03         0.4 %
  non-local psp FMF          :   0.912434E-03  0.114054E-03         0.2 %
  non-local psp FFM A        :   0.225554E-03  0.281943E-04         0.0 %
  non-local psp FFM B        :   0.145915E-02  0.182393E-03         0.3 %

     >>>  JOB COMPLETED     AT Thu Jul  9 13:05:44 2020  <<<

  Step       Energy      Delta E   Gmax     Grms     Xrms     Xmax   Walltime
  ---- ---------------- -------- -------- -------- -------- -------- --------
@   11     -45.07688308 -1.2D-08  0.00030  0.00016  0.00000  0.00001     27.7
                                     ok       ok       ok       ok  


      ----------------------
      Optimization converged
      ----------------------


  Step       Energy      Delta E   Gmax     Grms     Xrms     Xmax   Walltime
  ---- ---------------- -------- -------- -------- -------- -------- --------
@   11     -45.07688308 -1.2D-08  0.00030  0.00016  0.00000  0.00001     27.7
                                     ok       ok       ok       ok  



                         Geometry "geometry" -> "geometry"
                         ---------------------------------

 Output coordinates in angstroms (scale by  1.889725989 to convert to a.u.)

  No.       Tag          Charge          X              Y              Z
 ---- ---------------- ---------- -------------- -------------- --------------
    1 C                    6.0000     1.82718349     1.82718324     1.82718244
    2 C                    6.0000     3.65434930     3.65433780     1.82716980
    3 C                    6.0000     0.00000312     1.82716922     3.65433676
    4 C                    6.0000     1.82716886     0.00001467     0.00001546
    5 C                    6.0000     2.74075591     2.74077730     2.74078023
    6 C                    6.0000     0.91358890     0.91357928     2.74074821
    7 C                    6.0000     0.91358737     2.74075127     0.91358251
    8 C                    6.0000     2.74077266     0.91359699     0.91359363

      Lattice Parameters 
      ------------------ 

      lattice vectors in angstroms (scale by  1.889725989 to convert to a.u.)

      a1=<   3.654   0.000  -0.000 >
      a2=<   0.000   3.654   0.000 >
      a3=<  -0.000   0.000   3.654 >
      a=       3.654 b=      3.654 c=       3.654
      alpha=  90.000 beta=  90.000 gamma=  90.000
      omega=    48.8

      reciprocal lattice vectors in a.u.

      b1=<   0.910  -0.000   0.000 >
      b2=<  -0.000   0.910  -0.000 >
      b3=<   0.000  -0.000   0.910 >

      Atomic Mass 
      ----------- 

      C                 12.000000


 ==============================================================================
                                internuclear distances
 ------------------------------------------------------------------------------
       center one      |      center two      | atomic units |  angstroms
 ------------------------------------------------------------------------------
    5 C                |   1 C                |     2.99027  |     1.58238
    5 C                |   2 C                |     2.99027  |     1.58238
    6 C                |   1 C                |     2.99027  |     1.58238
    6 C                |   3 C                |     2.99027  |     1.58238
    7 C                |   1 C                |     2.99027  |     1.58238
    8 C                |   1 C                |     2.99027  |     1.58238
    8 C                |   4 C                |     2.99027  |     1.58238
 ------------------------------------------------------------------------------
                         number of included internuclear distances:          7
 ==============================================================================



 ==============================================================================
                                 internuclear angles
 ------------------------------------------------------------------------------
        center 1       |       center 2       |       center 3       |  degrees
 ------------------------------------------------------------------------------
    5 C                |   1 C                |   6 C                |   109.47
    5 C                |   1 C                |   7 C                |   109.47
    5 C                |   1 C                |   8 C                |   109.47
    6 C                |   1 C                |   7 C                |   109.47
    6 C                |   1 C                |   8 C                |   109.47
    7 C                |   1 C                |   8 C                |   109.47
    1 C                |   5 C                |   2 C                |   109.47
    1 C                |   6 C                |   3 C                |   109.47
    1 C                |   8 C                |   4 C                |   109.47
 ------------------------------------------------------------------------------
                            number of included internuclear angles:          9
 ==============================================================================




 Task  times  cpu:       33.7s     wall:       27.7s


                                NWChem Input Module
                                -------------------


 Summary of allocated global arrays
-----------------------------------
  No active global arrays



                         GA Statistics for process    0
                         ------------------------------

       create   destroy   get      put      acc     scatter   gather  read&inc
calls:    0        0        0        0        0        0        0        0     
number of processes/call 0.00e+00 0.00e+00 0.00e+00 0.00e+00 0.00e+00
bytes total:             0.00e+00 0.00e+00 0.00e+00 0.00e+00 0.00e+00 0.00e+00
bytes remote:            0.00e+00 0.00e+00 0.00e+00 0.00e+00 0.00e+00 0.00e+00
Max memory consumed for GA by this process: 0 bytes

MA_summarize_allocated_blocks: starting scan ...
MA_summarize_allocated_blocks: scan completed: 0 heap blocks, 0 stack blocks
MA usage statistics:

	allocation statistics:
					      heap	     stack
					      ----	     -----
	current number of blocks	         0	         0
	maximum number of blocks	       284	        15
	current total bytes		         0	         0
	maximum total bytes		  11062216	   1359656
	maximum total K-bytes		     11063	      1360
	maximum total M-bytes		        12	         2


                                     CITATION
                                     --------
                Please cite the following reference when publishing
                           results obtained with NWChem:

                 M. Valiev, E.J. Bylaska, N. Govind, K. Kowalski,
              T.P. Straatsma, H.J.J. van Dam, D. Wang, J. Nieplocha,
                        E. Apra, T.L. Windus, W.A. de Jong
                 "NWChem: a comprehensive and scalable open-source
                  solution for large scale molecular simulations"
                      Comput. Phys. Commun. 181, 1477 (2010)
                           doi:10.1016/j.cpc.2010.04.018

                                      AUTHORS
                                      -------
     E. Apra, E. J. Bylaska, N. Govind, K. Kowalski, M. Valiev, W. A. de Jong,
      T. P. Straatsma, H. J. J. van Dam, D. Wang, T. L. Windus, N. P. Bauman,
       A. Panyala, J. Hammond, J. Autschbach, K. Bhaskaran-Nair, J. Brabec,
    K. Lopata, S. A. Fischer, S. Krishnamoorthy, M. Jacquelin, W. Ma, M. Klemm,
       O. Villa, Y. Chen, V. Anisimov, F. Aquino, S. Hirata, M. T. Hackler,
           Eric Hermes, L. Jensen, J. E. Moore, J. C. Becca, V. Konjkov,
            D. Mejia-Rodriguez, T. Risthaus, M. Malagoli, A. Marenich,
   A. Otero-de-la-Roza, J. Mullin, P. Nichols, R. Peverati, J. Pittner, Y. Zhao,
        P.-D. Fan, A. Fonari, M. J. Williamson, R. J. Harrison, J. R. Rehr,
      M. Dupuis, D. Silverstein, D. M. A. Smith, J. Nieplocha, V. Tipparaju,
      M. Krishnan, B. E. Van Kuiken, A. Vazquez-Mayagoitia, M. Swart, Q. Wu,
   T. Van Voorhis, A. A. Auer, M. Nooijen, L. D. Crosby, E. Brown, G. Cisneros,
     G. I. Fann, H. Fruchtl, J. Garza, K. Hirao, R. A. Kendall, J. A. Nichols,
       K. Tsemekhman, K. Wolinski, J. Anchell, D. E. Bernholdt, P. Borowski,
       T. Clark, D. Clerc, H. Dachsel, M. J. O. Deegan, K. Dyall, D. Elwood,
      E. Glendening, M. Gutowski, A. C. Hess, J. Jaffe, B. G. Johnson, J. Ju,
        R. Kobayashi, R. Kutteh, Z. Lin, R. Littlefield, X. Long, B. Meng,
      T. Nakajima, S. Niu, L. Pollack, M. Rosing, K. Glaesemann, G. Sandrone,
      M. Stave, H. Taylor, G. Thomas, J. H. van Lenthe, A. T. Wong, Z. Zhang.

 Total times  cpu:       33.7s     wall:       27.7s
