          *******************************************************
          *                                                     *
          *          GAMESS VERSION = 30 JUN 2023 (R1)          *
          *                                                     *
          *              doi.org/10.1063/5.0005188              *
          *                                                     *
          *************** 64 BIT WINDOWS VERSION ****************

  GAMESS HAS BEEN MADE POSSIBLE WITH IMPORTANT CONTRIBUTIONS FROM
  THE FOLLOWING INDIVIDUALS (IN ALPHABETICAL ORDER):

     IVANA ADAMOVIC, CHRISTINE AIKENS, TOMOKO AKAMA,
     MELISA ALKAN, YURI ALEXEEV, YURIKO AOKI, POOJA ARORA,
     TOSHIO ASADA, ANDREY ASADCHEV, KIM K. BALDRIDGE,
     PRADIPTA BANDYOPADHYAY, TAYLOR A. BARNES, MARIA BARYSZ,
     ROB BELL, JONATHAN BENTZ, COLLEEN BERTONI,
     JERRY A. BOATZ, BRETT BODE, KURT BRORSEN, KURT R. BRORSEN,
     LAIMUTIS BYTAUTAS, CALEB CARLIN, LAURA CARRINGTON,
     GALINA CHABAN, BENOIT CHAMPAGNE, WEI CHEN, MAHITO CHIBA,
     DAN CHIPMAN, CHEOL HO CHOI, TANNER CULPITT,
     DIPAYAN DATTA, PAUL DAY, ALBERT DEFUSCO,
     NUWAN DESILVA, J. EMILIANO DEUSTUA,
     TIM DUDLEY, MICHEL DUPUIS, STEVEN T. ELBERT,
     DMITRI FEDOROV, KATHERINE FERRERAS, MICHAEL FILATOV,
     ALEX FINDLATER,GRAHAM FLETCHER, MARK FREITAG,
     CHRISTIAN FRIEDL, DAVID GARMER, 
     IGOR S. GERASIMOV, KURT GLAESEMANN,
     MARK S. GORDON, JEFFREY R. GOUR, FENG LONG GU,
     EMILIE B. GUIDEZ, ANASTASIA GUNINA, SHARON HAMMES-SCHIFFER,
     MASATAKE HARUTA, KIMIHIKO HIRAO, YASUHIRO IKABATA,
     TZVETELIN IORDANOV, STEPHAN IRLE, KAZUYA ISHIMURA,
     JOE IVANIC, FRANK JENSEN, JAN H. JENSEN, VISVALDAS KAIRYS,
     MUNEAKI KAMIYA, MICHIO KATOUDA, NAOAKI KAWAKAMI, DAN KEMP,
     BERNARD KIRTMAN, KAZUO KITAURA, MARIUSZ KLOBUKOWSKI,
     MASATO KOBAYASHI, KONSTANTIN KOMAROV, PRAKASHAN KORAMBATH,
     JACEK KORCHOWIEC, SHIRO KOSEKI, KAROL KOWALSKI,
     JIMMY KROMANN, STANISLAW A. KUCHARSKI, HENRY KURTZ,
     SAROM SOK LEANG, SEUNGHOON LEE, HUI LI, SHUHUA LI, WEI LI,
     JESSE J. LUTZ, ALEKSANDR O. LYKHIN,
     ILIAS MAGOULAS, MARCIN MAKOWSKI,
     JOANI MATO, NIKITA MATSUNAGA, BENEDETTA MENNUCCI,
     GRANT MERRILL, NORIYUKI MINEZAWA, VLADIMIR MIRONOV,
     EISAKU MIYOSHI, JOHN A. MONTGOMERY JR., HIROTOSHI MORI,
     JONATHAN MULLIN, MONIKA MUSIAL, SHIGERU NAGASE,
     TAKESHI NAGATA, HIROMI NAKAI, TAKAHITO NAKAJIMA,
     YUYA NAKAJIMA, HARUYUKI NAKANO, HIROYA NAKATA, SEAN NEDD,
     HEATHER NETZLOFF, KIET A. NGUYEN, YOSHIO NISHIMOTO,
     BOSILJKA NJEGIC, RYAN OLSON, MIKE PAK, ROBERTO PEVERATI,
     BUU PHAM, PIOTR PIECUCH, ANNA POMOGAEVA, DAVID POOLE,
     SPENCER PRUITT, OLIVIER QUINET, LUKE ROSKOP,
     KLAUS RUEDENBERG, ANDREW SAND, TOSAPORN SATTASATHUCHANA,
     NOZOMI SAWADA, MICHAEL W. SCHMIDT, PATRICK E. SCHNEIDER,
     JUNJI SEINO, PRACHI SHARMA, JUN SHEN, JIM SHOEMAKER,
     YINAN SHU, DEJUN SI, JONATHAN SKONE, LYUDMILA SLIPCHENKO,
     TONY SMITH, JIE SONG, MARK SPACKMAN, CASPER STEINMANN,
     WALT STEVENS, PEIFENG SU, SHUJUN SU, CHET SWALINA,
     CHINAMI TAKASHIMA, TETSUYA TAKETSUGU, ZHEN TAO,
     NANDUN THELLAMUREGE, SEIKEN TOKURA, JACOPO TOMASI,
     TSUGUKI TOUMA, TAKAO TSUNEDA, HIROAKI UMEDA,
     JORGE LUIS GALVEZ VALLEJO, YALI WANG, SIMON WEBB,
     AARON WEST, THERESA L. WINDUS, MARTA WLOCH,
     PENG XU, KIYOSHI YAGI, SUSUMU YANAGISAWA, YANG YANG,
     SOOHAENG YOO, TAKESHI YOSHIKAWA, FEDERICO ZAHARIEV,
     TOBY ZENG

  WHO ARE SUPPORTED BY THEIR INSTITUTION/UNIVERSITY/COMPANY/GROUP
  (IN ALPHABETICAL ORDER):

     EP ANALYTICS,
     FACULTES UNIVERSITAIRES NOTRE-DAME DE LA PAIX,
     INSTITUTE FOR MOLECULAR SCIENCE, IOWA STATE UNIVERSITY,
     JACKSON STATE UNIVERSITY, JOHANNES KEPLER UNIVERSITY LINZ,
     KYUNGPOOK NATIONAL UNIVERSITY
     KYUSHU UNIVERSITY, MICHIGAN STATE UNIVERSITY,
     MIE UNIVERSITY, THE MOLECULAR SCIENCES SOFTWARE INSTITUTE,
     MOSCOW STATE UNIVERSITY,
     N. COPERNICUS UNIVERSITY, NAGOYA UNIVERSITY,
     NANJING UNIVERSITY, NAT. INST. OF ADVANCED INDUSTRIAL
     SCIENCE AND TECHNOLOGY, NATIONAL INST. OF STANDARDS AND
     TECHNOLOGY, NESMEYANOV INSTITUTE OF ORGANOELEMENT COMPOUNDS
     OF RUSSIAN ACADEMY OF SCIENCES, OSAKA PREFECTURE UNIVERSITY,
     PENNSYLVANIA STATE UNIVERSITY, TOKYO INSTITUTE OF TECHNOLOGY,
     UNIVERSITY OF AARHUS, UNIVERSITY OF ALBERTA,
     UNIVERSITY OF CALIFORNIA AT SANTA BARBARA,
     UNIVERSITY OF COPENHAGEN, UNIVERSITY OF IOWA,
     UNIVERSITY OF MEMPHIS, UNIVERSITY OF MINNESOTA,
     UNIVERSITY OF NEBRASKA, UNIVERSITY OF NEW ENGLAND,
     UNIVERSITY OF NOTRE DAME, UNIVERSITY OF PISA,
     UNIVERSITY OF SILESIA, UNIVERSITY OF TOKYO,
     UNIVERSITY OF ZURICH, WASEDA UNIVERSITY,
     YALE UNIVERSITY

  GAMESS SOFTWARE MANAGEMENT TEAM FOR THIS RELEASE:
     MARK S. GORDON (TEAM LEAD),
     BRETT BODE (SENIOR ADVISOR),
     GIUSEPPE BARCA,
     COLLEEN BERTONI,
     KRISTOPHER KEIPERT (ADVISOR),
     SAROM S. LEANG (DEVELOPMENT LEAD),
     BUU PHAM,
     JACKSON HAYES (WEBSITE ADMINISTRATOR),
     PENG XU


 PARALLEL VERSION RUNNING ON        2 PROCESSORS IN        2 NODES.

 EXECUTION OF GAMESS BEGUN 23:16:21 22-MAY-2024    

            ECHO OF THE FIRST FEW INPUT CARDS -
 INPUT CARD>!   File created by the GAMESS Input Deck Generator Plugin for Avogadro         
 INPUT CARD> $BASIS GBASIS=N31 NGAUSS=6 NDFUNC=1 NPFUNC=1 $END                              
 INPUT CARD> $CONTRL SCFTYP=RHF RUNTYP=OPTIMIZE DFTTYP=B3LYP $END                           
 INPUT CARD> $STATPT OPTTOL=0.0001 NSTEP=20 $END                                            
 INPUT CARD>                                                                                
 INPUT CARD> $DATA                                                                          
 INPUT CARD>Title                                                                           
 INPUT CARD>C1                                                                              
 INPUT CARD>C     6.0    -3.32456    -0.19040     0.00000                                   
 INPUT CARD>H     1.0    -2.21516    -0.19040    -0.00000                                   
 INPUT CARD>H     1.0    -3.69436    -0.08199     1.04032                                   
 INPUT CARD>H     1.0    -3.69436    -1.14555    -0.42627                                   
 INPUT CARD>H     1.0    -3.69436     0.65633    -0.61405                                   
 INPUT CARD> $END                                                                           
      1000000 WORDS OF MEMORY AVAILABLE

     BASIS OPTIONS
     -------------
     GBASIS=N31          IGAUSS=       6      POLAR=POPN31  
     NDFUNC=       1     NFFUNC=       0     DIFFSP=       F
     NPFUNC=       1      DIFFS=       F     BASNAM=        


     RUN TITLE
     ---------
 Title                                                                           

 THE POINT GROUP OF THE MOLECULE IS C1      
 THE ORDER OF THE PRINCIPAL AXIS IS     0

 ATOM      ATOMIC                      COORDINATES (BOHR)
           CHARGE         X                   Y                   Z
 C           6.0    -6.2825074297       -0.3598038281        0.0000000000
 H           1.0    -4.1860454190       -0.3598038281        0.0000000000
 H           1.0    -6.9813281000       -0.1549386337        1.9659197395
 H           1.0    -6.9813281000       -2.1647756052       -0.8055334968
 H           1.0    -6.9813281000        1.2402838575       -1.1603862428

          INTERNUCLEAR DISTANCES (ANGS.)
          ------------------------------

                1 C          2 H          3 H          4 H          5 H     

   1 C       0.0000000    1.1094000 *  1.1094010 *  1.1094006 *  1.1093967 *
   2 H       1.1094000 *  0.0000000    1.8116432 *  1.8116430 *  1.8116406 *
   3 H       1.1094010 *  1.8116432 *  0.0000000    1.8116418 *  1.8116447 *
   4 H       1.1094006 *  1.8116430 *  1.8116418 *  0.0000000    1.8116382 *
   5 H       1.1093967 *  1.8116406 *  1.8116447 *  1.8116382 *  0.0000000  

  * ... LESS THAN  3.000


     ATOMIC BASIS SET
     ----------------
 THE CONTRACTED PRIMITIVE FUNCTIONS HAVE BEEN UNNORMALIZED
 THE CONTRACTED BASIS FUNCTIONS ARE NOW NORMALIZED TO UNITY

  SHELL TYPE  PRIMITIVE        EXPONENT          CONTRACTION COEFFICIENT(S)

 C         

      1   S       1          3047.5248800    0.001834737132
      1   S       2           457.3695180    0.014037322813
      1   S       3           103.9486850    0.068842622264
      1   S       4            29.2101553    0.232184443216
      1   S       5             9.2866630    0.467941348435
      1   S       6             3.1639270    0.362311985337

      2   L       7             7.8682723   -0.119332419775    0.068999066591
      2   L       8             1.8812885   -0.160854151696    0.316423960957
      2   L       9             0.5442493    1.143456437840    0.744308290898

      3   L      10             0.1687145    1.000000000000    1.000000000000

      4   D      11             0.8000000    1.000000000000

 H         

      5   S      12            18.7311370    0.033494604338
      5   S      13             2.8253944    0.234726953484
      5   S      14             0.6401217    0.813757326146

      6   S      15             0.1612778    1.000000000000

      7   P      16             1.1000000    1.000000000000

 H         

      8   S      17            18.7311370    0.033494604338
      8   S      18             2.8253944    0.234726953484
      8   S      19             0.6401217    0.813757326146

      9   S      20             0.1612778    1.000000000000

     10   P      21             1.1000000    1.000000000000

 H         

     11   S      22            18.7311370    0.033494604338
     11   S      23             2.8253944    0.234726953484
     11   S      24             0.6401217    0.813757326146

     12   S      25             0.1612778    1.000000000000

     13   P      26             1.1000000    1.000000000000

 H         

     14   S      27            18.7311370    0.033494604338
     14   S      28             2.8253944    0.234726953484
     14   S      29             0.6401217    0.813757326146

     15   S      30             0.1612778    1.000000000000

     16   P      31             1.1000000    1.000000000000

 TOTAL NUMBER OF BASIS SET SHELLS             =   16
 NUMBER OF CARTESIAN GAUSSIAN BASIS FUNCTIONS =   35
 NUMBER OF ELECTRONS                          =   10
 CHARGE OF MOLECULE                           =    0
 SPIN MULTIPLICITY                            =    1
 NUMBER OF OCCUPIED ORBITALS (ALPHA)          =    5
 NUMBER OF OCCUPIED ORBITALS (BETA )          =    5
 TOTAL NUMBER OF ATOMS                        =    5
 THE NUCLEAR REPULSION ENERGY IS       13.2004515936

 SELECTED MURRAY-HANDY-LAMING RADIAL GRID

 LEGACY BECKE'S FUZZY CELL METHOD

 SELECTED ORIGINAL BECKE'S PARTITION FUNCTION

     LEBEDEV GRID-BASED DFT OPTIONS
     ------------------------------
     DFTTYP=B3LYP   
     NRAD  =      96     NLEB  =     302
     NRAD0 =      24     NLEB0 =     110
     SWOFF =    5.00E-03 (PURE SCF -> DFT)
     SWITCH=    3.00E-04 (COARSE -> TIGHT GRID)
     THRESH=    0.00E+00 GTHRE=    1.00E+00

 GRIMME'S EMPIRICAL DISPERSION CORRECTION= F

     $CONTRL OPTIONS
     ---------------
 SCFTYP=RHF          RUNTYP=OPTIMIZE     EXETYP=RUN     
 MPLEVL=       0     CITYP =NONE         CCTYP =NONE         VBTYP =NONE    
 DFTTYP=B3LYP        TDDFT =NONE    
 MULT  =       1     ICHARG=       0     NZVAR =       0     COORD =UNIQUE  
 PP    =NONE         RELWFN=NONE         LOCAL =NONE         NUMGRD=       F
 ISPHER=      -1     NOSYM =       0     MAXIT =      30     UNITS =ANGS    
 PLTORB=       F     MOLPLT=       F     AIMPAC=       F     FRIEND=        
 NPRINT=       7     IREST =       0     GEOM  =INPUT   
 NORMF =       0     NORMP =       0     ITOL  =      20     ICUT  =       9
 INTTYP=BEST         GRDTYP=BEST         QMTTOL= 1.0E-06

     $SYSTEM OPTIONS
     ---------------
  REPLICATED MEMORY=     1000000 WORDS (ON EVERY NODE).
 DISTRIBUTED MEMDDI=           0 MILLION WORDS IN AGGREGATE,
 MEMDDI DISTRIBUTED OVER   2 PROCESSORS IS           0 WORDS/PROCESSOR.
 TOTAL MEMORY REQUESTED ON EACH PROCESSOR=     1000000 WORDS.
 TIMLIM=      525600.00 MINUTES, OR     365.0 DAYS.
 PARALL= T  BALTYP=  DLB     KDIAG=    0  COREFL= F
 MXSEQ2=     300 MXSEQ3=     150  mem10=         0  mem22=         0

          ----------------
          PROPERTIES INPUT
          ----------------

     MOMENTS            FIELD           POTENTIAL          DENSITY
 IEMOM =       1   IEFLD =       0   IEPOT =       0   IEDEN =       0
 WHERE =COMASS     WHERE =NUCLEI     WHERE =NUCLEI     WHERE =NUCLEI  
 OUTPUT=BOTH       OUTPUT=BOTH       OUTPUT=BOTH       OUTPUT=BOTH    
 IEMINT=       0   IEFINT=       0                     IEDINT=       0
                                                       MORB  =       0
          EXTRAPOLATION IN EFFECT
          DIIS IN EFFECT
 ORBITAL PRINTING OPTION: NPREO=     1    35     2     1

     -------------------------------
     INTEGRAL TRANSFORMATION OPTIONS
     -------------------------------
     NWORD  =            0
     CUTTRF = 1.0E-09     MPTRAN =       0
     DIRTRF =       F     AOINTS =DUP     

          ----------------------
          INTEGRAL INPUT OPTIONS
          ----------------------
 NOPK  =       1 NORDER=       0 SCHWRZ=       F

     ------------------------------------------
     THE POINT GROUP IS C1 , NAXIS= 0, ORDER= 1
     ------------------------------------------

     DIMENSIONS OF THE SYMMETRY SUBSPACES ARE
 A   =   35

 ..... DONE SETTING UP THE RUN .....
 CPU     0: STEP CPU TIME=     0.00 TOTAL CPU TIME=          0.0 (      0.0 MIN)
 TOTAL WALL CLOCK TIME=          0.0 SECONDS, CPU UTILIZATION IS     0.00%


          -----------------------------
          STATIONARY POINT LOCATION RUN
          -----------------------------

 OBTAINING INITIAL HESSIAN, HESS=GUESS   
 CARTESIAN COORDINATE OPTIMIZATION USING BADGER'S RULE FORCE CONSTANT GUESS

          PARAMETERS CONTROLLING GEOMETRY SEARCH ARE
          METHOD =QA                  UPHESS =BFGS    
          NNEG   =         0          NFRZ   =         0
          NSTEP  =        20          IFOLOW =         1
          HESS   =GUESS               RESTAR =         F
          IHREP  =         0          HSSEND =         F
          NPRT   =         0          NPUN   =         0
          OPTTOL = 1.000E-04          RMIN   = 1.500E-03
          RMAX   = 1.000E-01          RLIM   = 7.000E-02
          DXMAX  = 3.000E-01          PURIFY =         F
          MOVIE  =         F          TRUPD  =         T
          TRMAX  = 5.000E-01          TRMIN  = 5.000E-02
          ITBMAT =         5          STPT   =         F
          STSTEP = 1.000E-02          PROJCT=          T

 BEGINNING GEOMETRY SEARCH POINT NSERCH=   0 ...

 COORDINATES OF ALL ATOMS ARE (ANGS)
   ATOM   CHARGE       X              Y              Z
 ------------------------------------------------------------
 C           6.0  -3.3245600000  -0.1904000000   0.0000000000
 H           1.0  -2.2151600000  -0.1904000000   0.0000000000
 H           1.0  -3.6943600000  -0.0819900000   1.0403200000
 H           1.0  -3.6943600000  -1.1455500000  -0.4262700000
 H           1.0  -3.6943600000   0.6563300000  -0.6140500000

          ********************
          1 ELECTRON INTEGRALS
          ********************
 ...... END OF ONE-ELECTRON INTEGRALS ......
 CPU     0: STEP CPU TIME=     0.00 TOTAL CPU TIME=          0.0 (      0.0 MIN)
 TOTAL WALL CLOCK TIME=          0.0 SECONDS, CPU UTILIZATION IS     0.00%

          -------------
          GUESS OPTIONS
          -------------
          GUESS =HUCKEL            NORB  =       0          NORDER=       0
          MIX   =       F          PRTMO =       F          PUNMO =       F
          TOLZ  = 1.0E-08          TOLE  = 1.0E-05
          SYMDEN=       F          PURIFY=       F

 INITIAL GUESS ORBITALS GENERATED BY HUCKEL   ROUTINE.
 HUCKEL GUESS REQUIRES     12896 WORDS.

 SYMMETRIES FOR INITIAL GUESS ORBITALS FOLLOW.   BOTH SET(S).
     5 ORBITALS ARE OCCUPIED (    1 CORE ORBITALS).
     2=A        3=A        4=A        5=A        6=A        7=A        8=A   
     9=A       10=A       11=A       12=A       13=A       14=A       15=A   
 ...... END OF INITIAL ORBITAL SELECTION ......
 CPU     0: STEP CPU TIME=     0.00 TOTAL CPU TIME=          0.0 (      0.0 MIN)
 TOTAL WALL CLOCK TIME=          0.0 SECONDS, CPU UTILIZATION IS     0.00%

                    ----------------------
                    AO INTEGRAL TECHNOLOGY
                    ----------------------
     S,P,L SHELL ROTATED AXIS INTEGRALS, REPROGRAMMED BY
        KAZUYA ISHIMURA (IMS) AND JOSE SIERRA (SYNSTAR).
     S,P,D,L SHELL ROTATED AXIS INTEGRALS PROGRAMMED BY
        KAZUYA ISHIMURA (INSTITUTE FOR MOLECULAR SCIENCE).
     S,P,D,F,G SHELL TO TOTAL QUARTET ANGULAR MOMENTUM SUM 5,
        ERIC PROGRAM BY GRAHAM FLETCHER (ELORET AND NASA ADVANCED
        SUPERCOMPUTING DIVISION, AMES RESEARCH CENTER).
     S,P,D,F,G,L SHELL GENERAL RYS QUADRATURE PROGRAMMED BY
        MICHEL DUPUIS (PACIFIC NORTHWEST NATIONAL LABORATORY).

          --------------------
          2 ELECTRON INTEGRALS
          --------------------

 THE -PK- OPTION IS OFF, THE INTEGRALS ARE NOT IN SUPERMATRIX FORM.
 STORING   15000 INTEGRALS/RECORD ON DISK, USING 12 BYTES/INTEGRAL.
 TWO ELECTRON INTEGRAL EVALUATION REQUIRES   90532 WORDS OF MEMORY.
 II,JST,KST,LST =  1  1  1  1 NREC =         1 INTLOC =    1
 II,JST,KST,LST =  2  1  1  1 NREC =         1 INTLOC =    2
 II,JST,KST,LST =  3  1  1  1 NREC =         1 INTLOC =    3
 II,JST,KST,LST =  4  1  1  1 NREC =         1 INTLOC =  183
 II,JST,KST,LST =  5  1  1  1 NREC =         1 INTLOC =  879
 II,JST,KST,LST =  6  1  1  1 NREC =         1 INTLOC =  986
 II,JST,KST,LST =  7  1  1  1 NREC =         1 INTLOC = 1376
 II,JST,KST,LST =  8  1  1  1 NREC =         1 INTLOC = 3294
 II,JST,KST,LST =  9  1  1  1 NREC =         1 INTLOC = 5269
 II,JST,KST,LST = 10  1  1  1 NREC =         1 INTLOC = 6795
 II,JST,KST,LST = 11  1  1  1 NREC =         2 INTLOC = 5079
 II,JST,KST,LST = 12  1  1  1 NREC =         2 INTLOC = 9455
 II,JST,KST,LST = 13  1  1  1 NREC =         2 INTLOC =14487
 II,JST,KST,LST = 14  1  1  1 NREC =         4 INTLOC = 4404
 II,JST,KST,LST = 15  1  1  1 NREC =         4 INTLOC = 9702
 II,JST,KST,LST = 16  1  1  1 NREC =         5 INTLOC = 3069
 TOTAL NUMBER OF NONZERO TWO-ELECTRON INTEGRALS =              179050
         13 INTEGRAL RECORDS WERE STORED ON DISK FILE  8.
  ...... END OF TWO-ELECTRON INTEGRALS .....
 CPU     0: STEP CPU TIME=     0.00 TOTAL CPU TIME=          0.0 (      0.0 MIN)
 TOTAL WALL CLOCK TIME=          0.0 SECONDS, CPU UTILIZATION IS     0.00%

          --------------------------
             R-B3LYP SCF CALCULATION
          --------------------------

     NUCLEAR ENERGY =        13.2004515936
     MAXIT =   30     NPUNCH=    2
     EXTRAP=T  DAMP=F  SHIFT=F  RSTRCT=F  DIIS=T  DEM=F  SOSCF=F
         DENSITY MATRIX CONVERGENCE THRESHOLD=  1.00E-05
     COARSE -> FINE DFT GRID SWITCH THRESHOLD=  3.00E-04 (SWITCH IN $DFT)
                   HF -> DFT SWITCH THRESHOLD=  5.00E-03 (SWOFF IN $DFT)
     MEMORY REQUIRED FOR RHF ITERS=    234452 WORDS.

 DFT CODE IS SWITCHING FROM THE FINE GRID NRAD= 96,  NLEB=  302
                      TO THE COARSE GRID NRAD0= 24, NLEB0=  110

     EXCHANGE FUNCTIONAL   =B88&HFX   
     CORRELATION FUNCTIONAL=LYP88&VWN5
     DFT THRESHOLD         =.276E-07
     GRID CHANGE THRESHOLD =.300E-03
 FOR AN EULER-MACLAURIN QUADRATURE USING  96 RADIAL POINTS:
 SMALLEST GAUSSIAN PRIMITIVE EXPONENT=        0.1612777588 OF TYPE -S-
 ON ATOM NUMBER   2 HAS RADIAL NORMALIZATION=  1.000000
  LARGEST GAUSSIAN PRIMITIVE EXPONENT=     3047.5248800000 OF TYPE -S-
 ON ATOM NUMBER   1 HAS RADIAL NORMALIZATION=  1.000000
 DFT IS SWITCHED OFF, PERFORMING PURE SCF UNTIL SWOFF THRESHOLD IS REACHED.

 ITER EX DEM     TOTAL ENERGY        E CHANGE  DENSITY CHANGE    DIIS ERROR
          * * *   INITIATING DIIS PROCEDURE   * * *
   1  0  0      -40.1000709890   -40.1000709890   0.119323490   0.415074693
   2  1  0      -40.1952348478    -0.0951638589   0.044361742   0.039216884
   3  2  0      -40.1993123702    -0.0040775224   0.015796814   0.023219264
   4  3  0      -40.1999189012    -0.0006065310   0.004464056   0.004508289
 CONVERGED TO SWOFF, SO DFT CALCULATION IS NOW SWITCHED ON.
          * * *   INITIATING DIIS PROCEDURE   * * *
   5  4  0      -40.4819631416    -0.2820442405   0.050328142   0.116469150
   6  5  0      -40.4849611719    -0.0029980303   0.028323398   0.021106388
   7  6  0      -40.4851172282    -0.0001560562   0.013682363   0.018740498
   8  7  0      -40.4859100249    -0.0007927967   0.000082511   0.000155733
 DFT CODE IS SWITCHING BACK TO THE FINE GRID
          * * *   INITIATING DIIS PROCEDURE   * * *
   9  8  0      -40.4872959697    -0.0013859448   0.000492061   0.000944132
  10  9  0      -40.4872968675    -0.0000008979   0.000264632   0.000179032
  11 10  0      -40.4872968609     0.0000000066   0.000135113   0.000191590
  12 11  0      -40.4872969395    -0.0000000786   0.000003111   0.000005725
  13 12  0      -40.4872969395    -0.0000000000   0.000000757   0.000001813
  14 13  0      -40.4872969395    -0.0000000000   0.000000066   0.000000065

          -----------------
          DENSITY CONVERGED
          -----------------
     TIME TO FORM FOCK OPERATORS=       0.4 SECONDS (       0.0 SEC/ITER)
     TIME TO SOLVE SCF EQUATIONS=       0.0 SECONDS (       0.0 SEC/ITER)

 FINAL R-B3LYP ENERGY IS      -40.4872969395 AFTER  14 ITERATIONS
 DFT EXCHANGE + CORRELATION ENERGY =        -5.5353687889
 TOTAL ELECTRON NUMBER             =         9.9999809413

          ------------
          EIGENVECTORS
          ------------

                      1          2          3          4          5
                  -10.1707    -0.6816    -0.3820    -0.3820    -0.3820
                     A          A          A          A          A   
    1  C  1  S    0.992878  -0.198686  -0.000000   0.000000   0.000001
    2  C  1  S    0.049209   0.387586   0.000006  -0.000002  -0.000002
    3  C  1  X   -0.000000   0.000001   0.200821  -0.063233   0.386340
    4  C  1  Y    0.000000   0.000002  -0.237385   0.325598   0.176687
    5  C  1  Z   -0.000000  -0.000002   0.311292   0.289090  -0.114496
    6  C  1  S   -0.014120   0.349668  -0.000017  -0.000002  -0.000005
    7  C  1  X    0.000000   0.000015   0.092127  -0.029006   0.177192
    8  C  1  Y   -0.000000  -0.000004  -0.108894   0.149347   0.081039
    9  C  1  Z    0.000000   0.000007   0.142790   0.132599  -0.052520
   10  C  1 XX   -0.009047  -0.009251   0.010308  -0.003245   0.019831
   11  C  1 YY   -0.009046  -0.009253  -0.013270  -0.011988  -0.007925
   12  C  1 ZZ   -0.009046  -0.009251   0.002960   0.015233  -0.011906
   13  C  1 XY    0.000000  -0.000001   0.007034  -0.009650  -0.005234
   14  C  1 XZ   -0.000000   0.000001  -0.009224  -0.008567   0.003392
   15  C  1 YZ   -0.000000   0.000000   0.013469  -0.009276  -0.008521
   16  H  2  S   -0.000222   0.135789   0.134052  -0.042211   0.257893
   17  H  2  S    0.002449   0.046408   0.121026  -0.038107   0.232856
   18  H  2  X    0.000195  -0.012837  -0.003390   0.001068  -0.006523
   19  H  2  Y   -0.000000   0.000000  -0.004454   0.006109   0.003315
   20  H  2  Z   -0.000000  -0.000001   0.005840   0.005424  -0.002148
   21  H  3  S   -0.000222   0.135790   0.134687   0.216267  -0.146110
   22  H  3  S    0.002449   0.046419   0.121611   0.195265  -0.131915
   23  H  3  X   -0.000065   0.004279   0.006165   0.002663   0.004649
   24  H  3  Y    0.000019  -0.001254  -0.005156   0.004980   0.004078
   25  H  3  Z    0.000183  -0.012039  -0.000904  -0.005406   0.005169
   26  H  4  S   -0.000222   0.135791   0.011905  -0.247202  -0.158146
   27  H  4  S    0.002449   0.046421   0.010753  -0.223195  -0.142788
   28  H  4  X   -0.000065   0.004279   0.003979  -0.005586   0.004434
   29  H  4  Y   -0.000168   0.011054  -0.003906  -0.005257  -0.003957
   30  H  4  Z   -0.000075   0.004933   0.006085   0.000352  -0.005394
   31  H  5  S   -0.000222   0.135793  -0.280641   0.073144   0.046357
   32  H  5  S    0.002449   0.046434  -0.253367   0.066042   0.041852
   33  H  5  X   -0.000065   0.004280  -0.001228   0.000116   0.008074
   34  H  5  Y    0.000149  -0.009799   0.006984   0.003128   0.001426
   35  H  5  Z   -0.000108   0.007106  -0.002454   0.007586  -0.000778

                      6          7          8          9         10
                    0.1170     0.1745     0.1745     0.1745     0.5368
                     A          A          A          A          A   
    1  C  1  S   -0.164317   0.000009  -0.000003  -0.000008  -0.000001
    2  C  1  S    0.204411  -0.000037   0.000012   0.000024   0.000050
    3  C  1  X    0.000020   0.177453  -0.017551  -0.343676   0.274491
    4  C  1  Y   -0.000005  -0.148744   0.344766  -0.094425  -0.566644
    5  C  1  Z    0.000009   0.310298   0.175316   0.151281   0.424161
    6  C  1  S    2.518508  -0.000091   0.000031   0.000078  -0.000091
    7  C  1  X    0.000114   0.601202  -0.059470  -1.164284  -0.523417
    8  C  1  Y   -0.000058  -0.503968   1.168021  -0.319868   1.080536
    9  C  1  Z    0.000029   1.051282   0.593919   0.512483  -0.808846
   10  C  1 XX   -0.016901  -0.009203   0.000911   0.017815   0.027938
   11  C  1 YY   -0.016902   0.013750   0.009536  -0.004689  -0.030519
   12  C  1 ZZ   -0.016901  -0.004559  -0.010443  -0.013123   0.002592
   13  C  1 XY    0.000000  -0.004451   0.010319  -0.002828   0.033294
   14  C  1 XZ   -0.000001   0.009289   0.005246   0.004528  -0.024926
   15  C  1 YZ   -0.000000  -0.010020   0.011615  -0.005766   0.055621
   16  H  2  S   -0.023069  -0.059476   0.005886   0.115175   0.177012
   17  H  2  S   -0.966102  -0.825644   0.081657   1.599022   0.088464
   18  H  2  X   -0.005303  -0.001719   0.000170   0.003331  -0.017010
   19  H  2  Y   -0.000000  -0.004476   0.010375  -0.002841   0.016092
   20  H  2  Z    0.000001   0.009337   0.005276   0.004553  -0.012046
   21  H  3  S   -0.023053  -0.072830  -0.068345  -0.082839   0.161794
   22  H  3  S   -0.965951  -1.011009  -0.948919  -1.150153   0.080871
   23  H  3  X    0.001769   0.008222   0.002177  -0.007065  -0.004988
   24  H  3  Y   -0.000518  -0.005320   0.009582  -0.003803   0.015268
   25  H  3  Z   -0.004974   0.001232  -0.002333  -0.004671  -0.019943
   26  H  4  S   -0.023053   0.016860   0.120095  -0.046149   0.150499
   27  H  4  S   -0.965964   0.234135   1.667314  -0.640848   0.075234
   28  H  4  X    0.001769   0.004673  -0.005280  -0.008516  -0.005183
   29  H  4  Y    0.004567  -0.006199  -0.001899   0.001877   0.022837
   30  H  4  Z    0.002039   0.008569  -0.000202   0.006659  -0.009036
   31  H  5  S   -0.023040   0.115441  -0.057633   0.013816  -0.489304
   32  H  5  S   -0.965861   1.602704  -0.800115   0.191833  -0.244510
   33  H  5  X    0.001769   0.000773   0.001752  -0.010890  -0.016283
   34  H  5  Y   -0.004050   0.005983   0.005155  -0.001590   0.035528
   35  H  5  Z    0.002938   0.001754   0.009063   0.003645  -0.026142

                     11         12         13         14         15
                    0.5368     0.5368     0.8679     0.8679     0.8680
                     A          A          A          A          A   
    1  C  1  S   -0.000001   0.000000   0.000004  -0.000003   0.000002
    2  C  1  S   -0.000014  -0.000041  -0.000005   0.000129   0.000026
    3  C  1  X   -0.066105  -0.704708  -0.187239   0.648807  -0.345646
    4  C  1  Y   -0.473471  -0.176294  -0.560036  -0.356948  -0.366640
    5  C  1  Z   -0.589736   0.220527  -0.476213   0.164678   0.567084
    6  C  1  S    0.000044   0.000077  -0.000013  -0.000274  -0.000071
    7  C  1  X    0.126063   1.343852   0.316933  -1.098221   0.585069
    8  C  1  Y    0.902884   0.336187   0.947954   0.604197   0.620604
    9  C  1  Z    1.124585  -0.420540   0.806076  -0.278746  -0.959891
   10  C  1 XX   -0.006730  -0.071722   0.058832  -0.203844   0.108600
   11  C  1 YY    0.054202   0.024640  -0.168252   0.112445   0.040661
   12  C  1 ZZ   -0.047478   0.047078   0.109426   0.091407  -0.149253
   13  C  1 XY    0.027822   0.010362  -0.101589  -0.064748  -0.066508
   14  C  1 XZ    0.034653  -0.012960  -0.086381   0.029873   0.102867
   15  C  1 YZ    0.022429   0.019559  -0.099312  -0.100111  -0.134114
   16  H  2  S   -0.042635  -0.454463   0.212293  -0.735550   0.391848
   17  H  2  S   -0.021317  -0.227148  -0.439568   1.523184  -0.811414
   18  H  2  X    0.004096   0.043667   0.024150  -0.083682   0.044578
   19  H  2  Y    0.013448   0.005007  -0.036018  -0.022957  -0.023579
   20  H  2  Z    0.016749  -0.006264  -0.030626   0.010592   0.036471
   21  H  3  S   -0.372261   0.273737   0.497550   0.109620  -0.692837
   22  H  3  S   -0.186049   0.136797  -1.030289  -0.226996   1.434745
   23  H  3  X   -0.004579   0.024765  -0.040318   0.035496   0.017147
   24  H  3  Y    0.015341   0.003615  -0.027729  -0.021130  -0.035122
   25  H  3  Z    0.034917  -0.019621   0.048919   0.028117  -0.074300
   26  H  4  S    0.423217   0.194712  -0.824779  -0.031519  -0.241444
   27  H  4  S    0.211506   0.097320   1.707979   0.065281   0.500006
   28  H  4  X    0.009219   0.023394   0.034832   0.043517  -0.008507
   29  H  4  Y    0.032411   0.013731   0.085053  -0.018330   0.011862
   30  H  4  Z    0.025213  -0.002372   0.023406   0.012657   0.052288
   31  H  5  S   -0.008340  -0.014000   0.115033   0.657320   0.542449
   32  H  5  S   -0.004170  -0.007015  -0.238162  -1.361168  -1.123283
   33  H  5  X    0.001733   0.019774  -0.018579   0.004369  -0.053058
   34  H  5  Y    0.013779   0.005564  -0.021051   0.062580   0.047009
   35  H  5  Z    0.016511  -0.006668  -0.041480  -0.051440  -0.014720

                     16         17         18         19         20
                    0.9035     1.0980     1.3695     1.3695     2.0307
                     A          A          A          A          A   
    1  C  1  S    0.094646  -0.099937   0.000000  -0.000002  -0.000000
    2  C  1  S   -0.845341  -2.028415  -0.000001  -0.000028  -0.000011
    3  C  1  X    0.000057   0.000033   0.000001  -0.000000   0.019881
    4  C  1  Y   -0.000013  -0.000025  -0.000000   0.000001   0.050605
    5  C  1  Z    0.000030   0.000018   0.000002   0.000001   0.117940
    6  C  1  S    1.353381   5.282780   0.000001   0.000078   0.000025
    7  C  1  X   -0.000099  -0.000073  -0.000001  -0.000005  -0.086270
    8  C  1  Y    0.000025   0.000053   0.000004  -0.000002  -0.219566
    9  C  1  Z   -0.000050  -0.000042  -0.000003  -0.000003  -0.511719
   10  C  1 XX    0.031111  -0.106598   0.000001  -0.000003  -0.104638
   11  C  1 YY    0.031137  -0.106604  -0.335851  -0.033126   0.527793
   12  C  1 ZZ    0.031127  -0.106595   0.335852   0.033120  -0.423151
   13  C  1 XY    0.000003  -0.000016   0.116608   0.538621   0.153757
   14  C  1 XZ    0.000003   0.000002   0.538623  -0.116602   0.358340
   15  C  1 YZ   -0.000005  -0.000000   0.038252  -0.387807   0.051656
   16  H  2  S    0.608957  -0.309997  -0.000000  -0.000004   0.092265
   17  H  2  S   -0.607175  -0.986676   0.000000  -0.000012  -0.012238
   18  H  2  X    0.075794   0.015167   0.000001  -0.000001   0.055205
   19  H  2  Y    0.000001  -0.000003   0.052204   0.241133   0.092818
   20  H  2  Z    0.000002  -0.000002   0.241129  -0.052201   0.216240
   21  H  3  S    0.609004  -0.309989  -0.000002  -0.000007   0.505397
   22  H  3  S   -0.607285  -0.986732   0.000001  -0.000010  -0.067020
   23  H  3  X   -0.025264  -0.005058   0.231218  -0.025389   0.002245
   24  H  3  Y    0.007407   0.001485  -0.018307  -0.244856   0.102738
   25  H  3  Z    0.071081   0.014222   0.084099   0.016490   0.312574
   26  H  4  S    0.609041  -0.310003   0.000001  -0.000010  -0.443222
   27  H  4  S   -0.607354  -0.986711  -0.000000  -0.000014   0.058766
   28  H  4  X   -0.025266  -0.005055  -0.137596  -0.187550   0.066495
   29  H  4  Y   -0.065265  -0.013054   0.125494   0.001076   0.170352
   30  H  4  Z   -0.029126  -0.005826  -0.161830   0.160300   0.250790
   31  H  5  S    0.609053  -0.309966  -0.000000  -0.000010  -0.154447
   32  H  5  S   -0.607399  -0.986834  -0.000004  -0.000014   0.020471
   33  H  5  X   -0.025266  -0.005061  -0.093624   0.212935   0.046881
   34  H  5  Y    0.057860   0.011575  -0.159389   0.002646   0.068877
   35  H  5  Z   -0.041958  -0.008395  -0.163402  -0.124586   0.233697

                     21         22         23         24         25
                    2.0307     2.0307     2.0456     2.0456     2.0456
                     A          A          A          A          A   
    1  C  1  S    0.000000   0.000000   0.000000  -0.000000  -0.000000
    2  C  1  S    0.000005   0.000004   0.000002  -0.000003  -0.000002
    3  C  1  X   -0.109707  -0.066597  -0.000010  -0.000010  -0.000001
    4  C  1  Y   -0.055231   0.106086  -0.000015   0.000012  -0.000005
    5  C  1  Z    0.042194  -0.034293   0.000031  -0.000008   0.000003
    6  C  1  S   -0.000012  -0.000013  -0.000008   0.000009   0.000005
    7  C  1  X    0.475991   0.288960   0.000039   0.000038   0.000003
    8  C  1  Y    0.239637  -0.460293   0.000062  -0.000051   0.000023
    9  C  1  Z   -0.183073   0.148794  -0.000125   0.000029  -0.000016
   10  C  1 XX    0.577334   0.350479   0.000049   0.000047   0.000002
   11  C  1 YY   -0.202206  -0.175711   0.000064  -0.000034   0.000008
   12  C  1 ZZ   -0.375128  -0.174771  -0.000110  -0.000014  -0.000012
   13  C  1 XY   -0.167809   0.322330  -0.000044   0.000033  -0.000016
   14  C  1 XZ    0.128198  -0.104193   0.000087  -0.000018   0.000012
   15  C  1 YZ   -0.281467   0.479066  -0.000096   0.000056  -0.000026
   16  H  2  S   -0.509075  -0.309045  -0.000041  -0.000041  -0.000003
   17  H  2  S    0.067506   0.040983   0.000007   0.000004  -0.000001
   18  H  2  X   -0.304601  -0.184914  -0.000025  -0.000025  -0.000002
   19  H  2  Y   -0.101238   0.194555  -0.276804  -0.332336   0.438642
   20  H  2  Z    0.077326  -0.062898   0.162121   0.419996   0.420498
   21  H  3  S    0.328247   0.001901   0.000133  -0.000010   0.000015
   22  H  3  S   -0.043520  -0.000254  -0.000018   0.000000  -0.000004
   23  H  3  X   -0.223349  -0.122237  -0.124955  -0.361387  -0.437174
   24  H  3  Y   -0.094856   0.194650   0.585427  -0.174573  -0.051265
   25  H  3  Z    0.139936  -0.062524  -0.105336  -0.110277  -0.150051
   26  H  4  S    0.315119  -0.259681   0.000020  -0.000022   0.000015
   27  H  4  S   -0.041783   0.034439  -0.000002   0.000002  -0.000003
   28  H  4  X   -0.222483  -0.104514  -0.176040  -0.124781   0.539227
   29  H  4  Y   -0.156378   0.239911  -0.109855   0.227746  -0.185142
   30  H  4  Z    0.052693  -0.042513   0.398840  -0.402027  -0.052969
   31  H  5  S   -0.134291   0.566824  -0.000110   0.000070  -0.000028
   32  H  5  S    0.017808  -0.075154   0.000018  -0.000011   0.000004
   33  H  5  X   -0.192113  -0.160538   0.300943   0.486118  -0.102054
   34  H  5  Y   -0.122059   0.282368  -0.198891   0.279265  -0.202285
   35  H  5  Z    0.092558  -0.126699  -0.455370   0.092252  -0.217445

                     26         27         28         29         30
                    2.6083     2.6083     2.6083     2.8750     2.8750
                     A          A          A          A          A   
    1  C  1  S    0.000001  -0.000000   0.000000   0.000001   0.000001
    2  C  1  S   -0.000010   0.000009   0.000010  -0.000005  -0.000011
    3  C  1  X   -0.023669   0.065955   0.127234   0.000002   0.000000
    4  C  1  Y    0.137714   0.046180   0.001671  -0.000000   0.000004
    5  C  1  Z   -0.039694   0.120902  -0.070053   0.000005  -0.000007
    6  C  1  S    0.000008  -0.000011  -0.000014  -0.000007  -0.000002
    7  C  1  X   -0.108883   0.303462   0.585417  -0.000004  -0.000010
    8  C  1  Y    0.633590   0.212476   0.007710   0.000002  -0.000003
    9  C  1  Z   -0.182614   0.556251  -0.322316  -0.000011   0.000001
   10  C  1 XX    0.073198  -0.203993  -0.393524   0.000007   0.000000
   11  C  1 YY   -0.026907   0.384622   0.052056  -0.430092   0.116045
   12  C  1 ZZ   -0.046280  -0.180633   0.341467   0.430086  -0.116056
   13  C  1 XY    0.245901   0.082467   0.002998   0.395644   0.610433
   14  C  1 XZ   -0.070879   0.215888  -0.125095   0.610429  -0.395639
   15  C  1 YZ    0.361740   0.017426   0.058245  -0.133994  -0.496625
   16  H  2  S   -0.007393   0.020604   0.039747  -0.000001   0.000003
   17  H  2  S    0.085704  -0.238855  -0.460782   0.000004   0.000008
   18  H  2  X   -0.029225   0.081440   0.157105  -0.000001  -0.000011
   19  H  2  Y   -0.614636  -0.206122  -0.007483  -0.271283  -0.418554
   20  H  2  Z    0.177155  -0.539610   0.312671  -0.418549   0.271277
   21  H  3  S   -0.004958   0.029958  -0.033719  -0.000003   0.000004
   22  H  3  S    0.057484  -0.347291   0.390904   0.000007   0.000006
   23  H  3  X    0.135782  -0.476531  -0.362877  -0.419000   0.213497
   24  H  3  Y   -0.623474  -0.152712  -0.067576   0.209858   0.449852
   25  H  3  Z    0.092333  -0.027198  -0.264075  -0.170808   0.028991
   26  H  4  S   -0.029810  -0.033798  -0.005291   0.000003   0.000004
   27  H  4  S    0.345568   0.391837   0.061338  -0.000000  -0.000001
   28  H  4  X    0.286867  -0.088869  -0.535723   0.394392   0.256135
   29  H  4  Y   -0.146506   0.324678   0.075608  -0.238043   0.087796
   30  H  4  Z    0.386067  -0.302718   0.349743   0.191263  -0.418900
   31  H  5  S    0.042163  -0.016761  -0.000738   0.000002  -0.000001
   32  H  5  S   -0.488764   0.194315   0.008550  -0.000002  -0.000001
   33  H  5  X   -0.150717  -0.192469  -0.563418   0.024624  -0.469605
   34  H  5  Y   -0.027690  -0.439462  -0.017742   0.299466  -0.119078
   35  H  5  Z   -0.248506  -0.370377   0.320111   0.398128   0.118610

                     31         32         33         34         35
                    3.0645     3.3906     3.3906     3.3906     4.4210
                     A          A          A          A          A   
    1  C  1  S   -0.146998  -0.000000  -0.000000  -0.000002  -0.471316
    2  C  1  S    0.864577   0.000000   0.000013   0.000003   2.870055
    3  C  1  X    0.000004  -0.397594   0.719507   0.219419  -0.000003
    4  C  1  Y   -0.000003   0.161797   0.324171  -0.769840   0.000002
    5  C  1  Z    0.000002   0.734609   0.318021   0.288320  -0.000000
    6  C  1  S    1.259168  -0.000006  -0.000027  -0.000003   2.007603
    7  C  1  X   -0.000001  -0.254981   0.461428   0.140707  -0.000006
    8  C  1  Y   -0.000004   0.103764   0.207899  -0.493698   0.000005
    9  C  1  Z    0.000005   0.471111   0.203944   0.184902  -0.000009
   10  C  1 XX   -0.087599  -0.540240   0.977632   0.298124  -2.032854
   11  C  1 YY   -0.087622  -0.449367  -0.875131  -0.186051  -2.032843
   12  C  1 ZZ   -0.087605   0.989601  -0.102522  -0.112111  -2.032849
   13  C  1 XY    0.000016  -0.126926  -0.254310   0.603930  -0.000003
   14  C  1 XZ   -0.000007  -0.576296  -0.249485  -0.226187   0.000003
   15  C  1 YZ   -0.000005   0.078922  -0.234197   0.911010   0.000000
   16  H  2  S   -0.236250   0.355689  -0.643665  -0.196285   0.235313
   17  H  2  S   -0.346031   0.258285  -0.467398  -0.142530  -0.353623
   18  H  2  X    0.638923  -0.557626   1.009097   0.307719  -0.303672
   19  H  2  Y   -0.000008   0.002796   0.005604  -0.013312  -0.000000
   20  H  2  Z    0.000002   0.012703   0.005501   0.004987   0.000000
   21  H  3  S   -0.236248  -0.748963  -0.080564  -0.109130   0.235310
   22  H  3  S   -0.346035  -0.543862  -0.058495  -0.079250  -0.353625
   23  H  3  X   -0.212971  -0.393437  -0.029145  -0.052527   0.101224
   24  H  3  Y    0.062443   0.116122   0.017790   0.003204  -0.029676
   25  H  3  Z    0.599136   1.100191   0.122478   0.163440  -0.284759
   26  H  4  S   -0.236244   0.258571   0.573555  -0.428400   0.235308
   27  H  4  S   -0.346030   0.187764   0.416496  -0.311083  -0.353628
   28  H  4  X   -0.212963   0.126587   0.308468  -0.217316   0.101222
   29  H  4  Y   -0.550082   0.347505   0.770225  -0.584414   0.261444
   30  H  4  Z   -0.245499   0.166532   0.346738  -0.249898   0.116681
   31  H  5  S   -0.236240   0.134711   0.150688   0.733840   0.235308
   32  H  5  S   -0.346029   0.097820   0.109423   0.532871  -0.353641
   33  H  5  X   -0.212974   0.062652   0.090210   0.382552   0.101221
   34  H  5  Y    0.487638  -0.156404  -0.172481  -0.880553  -0.231764
   35  H  5  Z   -0.353630   0.128152   0.134641   0.633910   0.168075
 ...... END OF RHF CALCULATION ......
 CPU     0: STEP CPU TIME=     0.36 TOTAL CPU TIME=          0.4 (      0.0 MIN)
 TOTAL WALL CLOCK TIME=          0.5 SECONDS, CPU UTILIZATION IS    69.24%

     ---------------------------------------------------------------------
     PROPERTIES FOR THE B3LYP    DFT FUNCTIONAL (RHF  TYPE) DENSITY MATRIX
     ---------------------------------------------------------------------

          -----------------
          ENERGY COMPONENTS
          -----------------

         WAVEFUNCTION NORMALIZATION =       1.0000000000

                ONE ELECTRON ENERGY =     -79.4047689219
                TWO ELECTRON ENERGY =      25.7170203887
           NUCLEAR REPULSION ENERGY =      13.2004515936
                                      ------------------
                       TOTAL ENERGY =     -40.4872969395

 ELECTRON-ELECTRON POTENTIAL ENERGY =      25.7170203887
  NUCLEUS-ELECTRON POTENTIAL ENERGY =    -119.3926507307
   NUCLEUS-NUCLEUS POTENTIAL ENERGY =      13.2004515936
                                      ------------------
             TOTAL POTENTIAL ENERGY =     -80.4751787484
               TOTAL KINETIC ENERGY =      39.9878818088
                 VIRIAL RATIO (V/T) =       2.0124891619

          ---------------------------------------
          MULLIKEN AND LOWDIN POPULATION ANALYSES
          ---------------------------------------

     ATOMIC MULLIKEN POPULATION IN EACH MOLECULAR ORBITAL

                      1          2          3          4          5

                  2.000000   2.000000   2.000000   2.000000   2.000000

    1             1.998222   1.293576   1.057343   1.057317   1.057295
    2             0.000444   0.176588   0.148111   0.016667   0.542243
    3             0.000444   0.176602   0.149503   0.381978   0.175539
    4             0.000444   0.176606   0.003351   0.498396   0.205275
    5             0.000444   0.176628   0.641693   0.045642   0.019649

               ----- POPULATIONS IN EACH AO -----
                             MULLIKEN      LOWDIN
              1  C  1  S      1.99174     1.97996
              2  C  1  S      0.68393     0.35311
              3  C  1  X      0.69982     0.60711
              4  C  1  Y      0.69981     0.60817
              5  C  1  Z      0.69981     0.60755
              6  C  1  S      0.65808     0.35437
              7  C  1  X      0.34935     0.49311
              8  C  1  Y      0.34936     0.49381
              9  C  1  Z      0.34936     0.49341
             10  C  1 XX     -0.00855     0.14627
             11  C  1 YY     -0.00991     0.14428
             12  C  1 ZZ     -0.00991     0.14428
             13  C  1 XY      0.00272     0.00491
             14  C  1 XZ      0.00272     0.00488
             15  C  1 YZ      0.00543     0.00983
             16  H  2  S      0.51960     0.48438
             17  H  2  S      0.35295     0.37587
             18  H  2  X      0.00710     0.01793
             19  H  2  Y      0.00220     0.00617
             20  H  2  Z      0.00220     0.00617
             21  H  3  S      0.51960     0.48350
             22  H  3  S      0.35296     0.37571
             23  H  3  X      0.00274     0.00740
             24  H  3  Y      0.00225     0.00627
             25  H  3  Z      0.00651     0.01635
             26  H  4  S      0.51961     0.48267
             27  H  4  S      0.35296     0.37557
             28  H  4  X      0.00274     0.00735
             29  H  4  Y      0.00583     0.01465
             30  H  4  Z      0.00292     0.00778
             31  H  5  S      0.51960     0.48209
             32  H  5  S      0.35295     0.37546
             33  H  5  X      0.00275     0.00732
             34  H  5  Y      0.00506     0.01275
             35  H  5  Z      0.00370     0.00956

          ----- MULLIKEN ATOMIC OVERLAP POPULATIONS -----
          (OFF-DIAGONAL ELEMENTS NEED TO BE MULTIPLIED BY 2)

             1           2           3           4           5

    1    4.9057426
    2    0.3894883   0.5767460
    3    0.3894983  -0.0273958   0.5767459
    4    0.3895053  -0.0273978  -0.0273923   0.5767519
    5    0.3895184  -0.0273886  -0.0273907  -0.0273940   0.5767114

          TOTAL MULLIKEN AND LOWDIN ATOMIC POPULATIONS
       ATOM         MULL.POP.    CHARGE          LOW.POP.     CHARGE
    1 C             6.463753   -0.463753         6.445048   -0.445048
    2 H             0.884052    0.115948         0.890514    0.109486
    3 H             0.884065    0.115935         0.889235    0.110765
    4 H             0.884073    0.115927         0.888021    0.111979
    5 H             0.884057    0.115943         0.887182    0.112818

          -------------------------------
          BOND ORDER AND VALENCE ANALYSIS     BOND ORDER THRESHOLD=0.050
          -------------------------------

                   BOND                       BOND                       BOND
  ATOM PAIR DIST  ORDER      ATOM PAIR DIST  ORDER      ATOM PAIR DIST  ORDER
    1   2  1.109  0.976        1   3  1.109  0.976        1   4  1.109  0.976
    1   5  1.109  0.976

                       TOTAL       BONDED        FREE
      ATOM            VALENCE     VALENCE     VALENCE
    1 C                 3.906       3.906       0.000
    2 H                 0.956       0.956       0.000
    3 H                 0.956       0.956      -0.000
    4 H                 0.956       0.956      -0.000
    5 H                 0.956       0.956       0.000

          ---------------------
          ELECTROSTATIC MOMENTS
          ---------------------

 POINT   1           X           Y           Z (BOHR)    CHARGE
                -6.282507   -0.359805   -0.000000        0.00 (A.U.)
         DX          DY          DZ         /D/  (DEBYE)
    -0.000059    0.000059   -0.000049    0.000097
 ...... END OF PROPERTY EVALUATION ......
 CPU     0: STEP CPU TIME=     0.00 TOTAL CPU TIME=          0.4 (      0.0 MIN)
 TOTAL WALL CLOCK TIME=          0.5 SECONDS, CPU UTILIZATION IS    67.17%

 BEGINNING ONE ELECTRON GRADIENT...
 ..... END OF 1-ELECTRON GRADIENT ......
 CPU     0: STEP CPU TIME=     0.00 TOTAL CPU TIME=          0.4 (      0.0 MIN)
 TOTAL WALL CLOCK TIME=          0.5 SECONDS, CPU UTILIZATION IS    67.17%

          ----------------------
          GRADIENT OF THE ENERGY
          ----------------------
 MEMORY FOR GRID POINT CONTRIBUTIONS TO THE DFT GRADIENT=    200597 WORDS.
 CPU     0: STEP CPU TIME=     0.08 TOTAL CPU TIME=          0.4 (      0.0 MIN)
 TOTAL WALL CLOCK TIME=          0.6 SECONDS, CPU UTILIZATION IS    69.55%

 THE MINIMUM MEMORY REQUIRED FOR THIS RUN IS      76379 WORDS.
 USING     990929 WORDS FOR 2E- DERIVATIVE INTEGRAL CONTRIBUTIONS.
 THE COARSE/FINE SCHWARZ SCREENINGS SKIPPED            0/           0 BLOCKS.
 THE NUMBER OF GRADIENT INTEGRAL BLOCKS COMPUTED WAS      9177
 ...... END OF 2-ELECTRON GRADIENT ......
 CPU     0: STEP CPU TIME=     0.02 TOTAL CPU TIME=          0.5 (      0.0 MIN)
 TOTAL WALL CLOCK TIME=          0.6 SECONDS, CPU UTILIZATION IS    72.04%

          NSERCH=  0     ENERGY=     -40.4872969

                                 -----------------------
                                 GRADIENT (HARTREE/BOHR)
                                 -----------------------
        ATOM     ZNUC       DE/DX         DE/DY         DE/DZ
 --------------------------------------------------------------
    1  C            6.0    -0.0000333    -0.0000178    -0.0000072
    2  H            1.0     0.0109745     0.0000008    -0.0000112
    3  H            1.0    -0.0036596     0.0010763     0.0102730
    4  H            1.0    -0.0036389    -0.0094296    -0.0042004
    5  H            1.0    -0.0036427     0.0083704    -0.0060542

          MAXIMUM GRADIENT = 0.0109745    RMS GRADIENT = 0.0056587

 NSERCH:   0  E=      -40.4872969395  GRAD. MAX=  0.0109745  R.M.S.=  0.0056587

          FORCE CONSTANT MATRIX NOT UPDATED --- TAKING FIRST STEP
          MIN SEARCH, CORRECT HESSIAN, TRYING PURE NR STEP
               NR STEP HAS LENGTH         =   0.046618
          RADIUS OF STEP TAKEN=   0.04662  CURRENT TRUST RADIUS=   0.30000

 BEGINNING GEOMETRY SEARCH POINT NSERCH=   1 ...

 COORDINATES OF ALL ATOMS ARE (ANGS)
   ATOM   CHARGE       X              Y              Z
 ------------------------------------------------------------
 C           6.0  -3.3244756250  -0.1903354688   0.0000057125
 H           1.0  -2.2274483867  -0.1903984849   0.0001712669
 H           1.0  -3.6901283275  -0.0832667326   1.0287908593
 H           1.0  -3.6903735694  -1.1347932066  -0.4216003977
 H           1.0  -3.6903740914   0.6467838929  -0.6073674410

          INTERNUCLEAR DISTANCES (ANGS.)
          ------------------------------

                1 C          2 H          3 H          4 H          5 H     

   1 C       0.0000000    1.0970273 *  1.0970709 *  1.0971023 *  1.0970655 *
   2 H       1.0970273 *  0.0000000    1.7913593 *  1.7916257 *  1.7916834 *
   3 H       1.0970709 *  1.7913593 *  0.0000000    1.7914639 *  1.7916439 *
   4 H       1.0971023 *  1.7916257 *  1.7914639 *  0.0000000    1.7912360 *
   5 H       1.0970655 *  1.7916834 *  1.7916439 *  1.7912360 *  0.0000000  

  * ... LESS THAN  3.000

 ...... END OF ONE-ELECTRON INTEGRALS ......
 CPU     0: STEP CPU TIME=     0.00 TOTAL CPU TIME=          0.5 (      0.0 MIN)
 TOTAL WALL CLOCK TIME=          0.6 SECONDS, CPU UTILIZATION IS    72.04%
 TOTAL NUMBER OF NONZERO TWO-ELECTRON INTEGRALS =              189435
         13 INTEGRAL RECORDS WERE STORED ON DISK FILE  8.
  ...... END OF TWO-ELECTRON INTEGRALS .....
 CPU     0: STEP CPU TIME=     0.00 TOTAL CPU TIME=          0.5 (      0.0 MIN)
 TOTAL WALL CLOCK TIME=          0.6 SECONDS, CPU UTILIZATION IS    70.25%

          --------------------------
             R-B3LYP SCF CALCULATION
          --------------------------
         DENSITY MATRIX CONVERGENCE THRESHOLD=  5.00E-05
     COARSE -> FINE DFT GRID SWITCH THRESHOLD=  1.50E-03 (SWITCH IN $DFT)
                   HF -> DFT SWITCH THRESHOLD=  5.00E-03 (SWOFF IN $DFT)

 DFT CODE IS SWITCHING FROM THE FINE GRID NRAD= 96,  NLEB=  302
                      TO THE COARSE GRID NRAD0= 24, NLEB0=  110

 ITER EX DEM     TOTAL ENERGY        E CHANGE  DENSITY CHANGE    DIIS ERROR
          * * *   INITIATING DIIS PROCEDURE   * * *
   1  0  0      -40.4863964935   -40.4863964935   0.006849265   0.007084919
   2  1  0      -40.4864262653    -0.0000297718   0.003754426   0.004339896
   3  2  0      -40.4864654947    -0.0000392294   0.000725823   0.000960566
 DFT CODE IS SWITCHING BACK TO THE FINE GRID
          * * *   INITIATING DIIS PROCEDURE   * * *
   4  3  0      -40.4879603165    -0.0014948219   0.000557430   0.000937330
   5  4  0      -40.4879613187    -0.0000010021   0.000243898   0.000161462
   6  5  0      -40.4879613113     0.0000000073   0.000126697   0.000181005
   7  6  0      -40.4879613798    -0.0000000684   0.000003080   0.000005202
   8  7  0      -40.4879613798    -0.0000000000   0.000000731   0.000001659

          -----------------
          DENSITY CONVERGED
          -----------------
     TIME TO FORM FOCK OPERATORS=       0.3 SECONDS (       0.0 SEC/ITER)
     TIME TO SOLVE SCF EQUATIONS=       0.0 SECONDS (       0.0 SEC/ITER)

 FINAL R-B3LYP ENERGY IS      -40.4879613798 AFTER   8 ITERATIONS
 DFT EXCHANGE + CORRELATION ENERGY =        -5.5492221046
 TOTAL ELECTRON NUMBER             =         9.9999806309
 ...... END OF RHF CALCULATION ......
 CPU     0: STEP CPU TIME=     0.28 TOTAL CPU TIME=          0.7 (      0.0 MIN)
 TOTAL WALL CLOCK TIME=          1.0 SECONDS, CPU UTILIZATION IS    70.34%
 ..... END OF 1-ELECTRON GRADIENT ......
 CPU     0: STEP CPU TIME=     0.00 TOTAL CPU TIME=          0.7 (      0.0 MIN)
 TOTAL WALL CLOCK TIME=          1.1 SECONDS, CPU UTILIZATION IS    69.74%
 MEMORY FOR GRID POINT CONTRIBUTIONS TO THE DFT GRADIENT=    200597 WORDS.
 CPU     0: STEP CPU TIME=     0.08 TOTAL CPU TIME=          0.8 (      0.0 MIN)
 TOTAL WALL CLOCK TIME=          1.2 SECONDS, CPU UTILIZATION IS    70.65%
 ...... END OF 2-ELECTRON GRADIENT ......
 CPU     0: STEP CPU TIME=     0.02 TOTAL CPU TIME=          0.8 (      0.0 MIN)
 TOTAL WALL CLOCK TIME=          1.2 SECONDS, CPU UTILIZATION IS    71.02%

          NSERCH=  1     ENERGY=     -40.4879614

                                 -----------------------
                                 GRADIENT (HARTREE/BOHR)
                                 -----------------------
        ATOM     ZNUC       DE/DX         DE/DY         DE/DZ
 --------------------------------------------------------------
    1  C            6.0     0.0000295     0.0000247     0.0000008
    2  H            1.0     0.0032049    -0.0000025     0.0000186
    3  H            1.0    -0.0010601     0.0003026     0.0030123
    4  H            1.0    -0.0010885    -0.0027518    -0.0012421
    5  H            1.0    -0.0010858     0.0024270    -0.0017897

          MAXIMUM GRADIENT = 0.0032049    RMS GRADIENT = 0.0016560

 NSERCH:   1  E=      -40.4879613798  GRAD. MAX=  0.0032049  R.M.S.=  0.0016560

          HESSIAN UPDATED USING THE BFGS FORMULA
             ACTUAL ENERGY CHANGE WAS  -0.0006644402
          PREDICTED ENERGY CHANGE WAS  -0.0005107900 RATIO=  1.301
          MIN SEARCH, CORRECT HESSIAN, TRYING PURE NR STEP
               NR STEP HAS LENGTH         =   0.019385
          RADIUS OF STEP TAKEN=   0.01939  CURRENT TRUST RADIUS=   0.06593

 BEGINNING GEOMETRY SEARCH POINT NSERCH=   2 ...

 COORDINATES OF ALL ATOMS ARE (ANGS)
   ATOM   CHARGE       X              Y              Z
 ------------------------------------------------------------
 C           6.0  -3.3246933216  -0.1905077107  -0.0000067347
 H           1.0  -2.2327206041  -0.1903870172  -0.0002409415
 H           1.0  -3.6886908886  -0.0835704757   1.0239254802
 H           1.0  -3.6883568385  -1.1307877280  -0.4194910192
 H           1.0  -3.6883383473   0.6432429315  -0.6041867848

          INTERNUCLEAR DISTANCES (ANGS.)
          ------------------------------

                1 C          2 H          3 H          4 H          5 H     

   1 C       0.0000000    1.0919727 *  1.0919556 *  1.0919454 *  1.0919759 *
   2 H       1.0919727 *  0.0000000    1.7833048 *  1.7829753 *  1.7828383 *
   3 H       1.0919556 *  1.7833048 *  0.0000000    1.7832878 *  1.7829771 *
   4 H       1.0919454 *  1.7829753 *  1.7832878 *  0.0000000    1.7836192 *
   5 H       1.0919759 *  1.7828383 *  1.7829771 *  1.7836192 *  0.0000000  

  * ... LESS THAN  3.000

 ...... END OF ONE-ELECTRON INTEGRALS ......
 CPU     0: STEP CPU TIME=     0.00 TOTAL CPU TIME=          0.8 (      0.0 MIN)
 TOTAL WALL CLOCK TIME=          1.2 SECONDS, CPU UTILIZATION IS    71.02%
 TOTAL NUMBER OF NONZERO TWO-ELECTRON INTEGRALS =              190603
         14 INTEGRAL RECORDS WERE STORED ON DISK FILE  8.
  ...... END OF TWO-ELECTRON INTEGRALS .....
 CPU     0: STEP CPU TIME=     0.00 TOTAL CPU TIME=          0.8 (      0.0 MIN)
 TOTAL WALL CLOCK TIME=          1.2 SECONDS, CPU UTILIZATION IS    71.02%

          --------------------------
             R-B3LYP SCF CALCULATION
          --------------------------
         DENSITY MATRIX CONVERGENCE THRESHOLD=  1.00E-05
     COARSE -> FINE DFT GRID SWITCH THRESHOLD=  3.00E-04 (SWITCH IN $DFT)
                   HF -> DFT SWITCH THRESHOLD=  5.00E-03 (SWOFF IN $DFT)

 DFT CODE IS SWITCHING FROM THE FINE GRID NRAD= 96,  NLEB=  302
                      TO THE COARSE GRID NRAD0= 24, NLEB0=  110

 ITER EX DEM     TOTAL ENERGY        E CHANGE  DENSITY CHANGE    DIIS ERROR
          * * *   INITIATING DIIS PROCEDURE   * * *
   1  0  0      -40.4864885648   -40.4864885648   0.002934138   0.003073791
   2  1  0      -40.4864948148    -0.0000062500   0.001575641   0.001744386
   3  2  0      -40.4865009281    -0.0000061133   0.000366467   0.000482483
   4  3  0      -40.4865014251    -0.0000004971   0.000006236   0.000004952
 DFT CODE IS SWITCHING BACK TO THE FINE GRID
          * * *   INITIATING DIIS PROCEDURE   * * *
   5  4  0      -40.4880192873    -0.0015178622   0.000589411   0.000927310
   6  5  0      -40.4880203212    -0.0000010339   0.000204803   0.000133452
   7  6  0      -40.4880203156     0.0000000057   0.000108856   0.000155322
   8  7  0      -40.4880203650    -0.0000000494   0.000003337   0.000004406
   9  8  0      -40.4880203650    -0.0000000000   0.000000778   0.000001702
  10  9  0      -40.4880203650    -0.0000000000   0.000000062   0.000000054

          -----------------
          DENSITY CONVERGED
          -----------------
     TIME TO FORM FOCK OPERATORS=       0.3 SECONDS (       0.0 SEC/ITER)
     TIME TO SOLVE SCF EQUATIONS=       0.0 SECONDS (       0.0 SEC/ITER)

 FINAL R-B3LYP ENERGY IS      -40.4880203650 AFTER  10 ITERATIONS
 DFT EXCHANGE + CORRELATION ENERGY =        -5.5550343479
 TOTAL ELECTRON NUMBER             =         9.9999801259
 ...... END OF RHF CALCULATION ......
 CPU     0: STEP CPU TIME=     0.31 TOTAL CPU TIME=          1.1 (      0.0 MIN)
 TOTAL WALL CLOCK TIME=          1.6 SECONDS, CPU UTILIZATION IS    70.76%
 ..... END OF 1-ELECTRON GRADIENT ......
 CPU     0: STEP CPU TIME=     0.00 TOTAL CPU TIME=          1.1 (      0.0 MIN)
 TOTAL WALL CLOCK TIME=          1.6 SECONDS, CPU UTILIZATION IS    70.32%
 MEMORY FOR GRID POINT CONTRIBUTIONS TO THE DFT GRADIENT=    200597 WORDS.
 CPU     0: STEP CPU TIME=     0.08 TOTAL CPU TIME=          1.2 (      0.0 MIN)
 TOTAL WALL CLOCK TIME=          1.7 SECONDS, CPU UTILIZATION IS    71.56%
 ...... END OF 2-ELECTRON GRADIENT ......
 CPU     0: STEP CPU TIME=     0.00 TOTAL CPU TIME=          1.2 (      0.0 MIN)
 TOTAL WALL CLOCK TIME=          1.7 SECONDS, CPU UTILIZATION IS    70.94%

          NSERCH=  2     ENERGY=     -40.4880204

                                 -----------------------
                                 GRADIENT (HARTREE/BOHR)
                                 -----------------------
        ATOM     ZNUC       DE/DX         DE/DY         DE/DZ
 --------------------------------------------------------------
    1  C            6.0    -0.0001014    -0.0000804    -0.0000058
    2  H            1.0    -0.0001476     0.0000089    -0.0000550
    3  H            1.0     0.0000290     0.0000172    -0.0001659
    4  H            1.0     0.0001143     0.0001170     0.0000929
    5  H            1.0     0.0001057    -0.0000627     0.0001338

          MAXIMUM GRADIENT = 0.0001659    RMS GRADIENT = 0.0000962

 NSERCH:   2  E=      -40.4880203650  GRAD. MAX=  0.0001659  R.M.S.=  0.0000962

          HESSIAN UPDATED USING THE BFGS FORMULA
             ACTUAL ENERGY CHANGE WAS  -0.0000589852
          PREDICTED ENERGY CHANGE WAS  -0.0000619084 RATIO=  0.953
          MIN SEARCH, CORRECT HESSIAN, TRYING PURE NR STEP
               NR STEP HAS LENGTH         =   0.003960
          RADIUS OF STEP TAKEN=   0.00396  CURRENT TRUST RADIUS=   0.05000

 BEGINNING GEOMETRY SEARCH POINT NSERCH=   3 ...

 COORDINATES OF ALL ATOMS ARE (ANGS)
   ATOM   CHARGE       X              Y              Z
 ------------------------------------------------------------
 C           6.0  -3.3242293264  -0.1901414935   0.0000210780
 H           1.0  -2.2321480607  -0.1904273154   0.0005792024
 H           1.0  -3.6882558157  -0.0839524640   1.0242842905
 H           1.0  -3.6890642673  -1.1301897576  -0.4198591748
 H           1.0  -3.6891025299   0.6427010305  -0.6050253961

          INTERNUCLEAR DISTANCES (ANGS.)
          ------------------------------

                1 C          2 H          3 H          4 H          5 H     

   1 C       0.0000000    1.0920814 *  1.0922026 *  1.0922887 *  1.0921723 *
   2 H       1.0920814 *  0.0000000    1.7831317 *  1.7839638 *  1.7842579 *
   3 H       1.0922026 *  1.7831317 *  0.0000000    1.7833013 *  1.7840056 *
   4 H       1.0922887 *  1.7839638 *  1.7833013 *  0.0000000    1.7825342 *
   5 H       1.0921723 *  1.7842579 *  1.7840056 *  1.7825342 *  0.0000000  

  * ... LESS THAN  3.000

 ...... END OF ONE-ELECTRON INTEGRALS ......
 CPU     0: STEP CPU TIME=     0.00 TOTAL CPU TIME=          1.2 (      0.0 MIN)
 TOTAL WALL CLOCK TIME=          1.7 SECONDS, CPU UTILIZATION IS    70.94%
 TOTAL NUMBER OF NONZERO TWO-ELECTRON INTEGRALS =              191669
         14 INTEGRAL RECORDS WERE STORED ON DISK FILE  8.
  ...... END OF TWO-ELECTRON INTEGRALS .....
 CPU     0: STEP CPU TIME=     0.00 TOTAL CPU TIME=          1.2 (      0.0 MIN)
 TOTAL WALL CLOCK TIME=          1.7 SECONDS, CPU UTILIZATION IS    70.94%

          --------------------------
             R-B3LYP SCF CALCULATION
          --------------------------
         DENSITY MATRIX CONVERGENCE THRESHOLD=  1.00E-05
     COARSE -> FINE DFT GRID SWITCH THRESHOLD=  3.00E-04 (SWITCH IN $DFT)
                   HF -> DFT SWITCH THRESHOLD=  5.00E-03 (SWOFF IN $DFT)

 DFT CODE IS SWITCHING FROM THE FINE GRID NRAD= 96,  NLEB=  302
                      TO THE COARSE GRID NRAD0= 24, NLEB0=  110

 ITER EX DEM     TOTAL ENERGY        E CHANGE  DENSITY CHANGE    DIIS ERROR
          * * *   INITIATING DIIS PROCEDURE   * * *
   1  0  0      -40.4865000174   -40.4865000174   0.000511106   0.000930636
   2  1  0      -40.4865012965    -0.0000012791   0.000323637   0.000215541
   3  2  0      -40.4865012990    -0.0000000025   0.000163069   0.000231568
 DFT CODE IS SWITCHING BACK TO THE FINE GRID
          * * *   INITIATING DIIS PROCEDURE   * * *
   4  3  0      -40.4880192280    -0.0015179290   0.000589080   0.000926143
   5  4  0      -40.4880202553    -0.0000010272   0.000203831   0.000132723
   6  5  0      -40.4880202492     0.0000000061   0.000108271   0.000154473
   7  6  0      -40.4880202983    -0.0000000491   0.000003132   0.000004357
   8  7  0      -40.4880202983    -0.0000000000   0.000000726   0.000001654
   9  8  0      -40.4880202983    -0.0000000000   0.000000062   0.000000056

          -----------------
          DENSITY CONVERGED
          -----------------
     TIME TO FORM FOCK OPERATORS=       0.4 SECONDS (       0.0 SEC/ITER)
     TIME TO SOLVE SCF EQUATIONS=       0.0 SECONDS (       0.0 SEC/ITER)

 FINAL R-B3LYP ENERGY IS      -40.4880202983 AFTER   9 ITERATIONS
 DFT EXCHANGE + CORRELATION ENERGY =        -5.5547784988
 TOTAL ELECTRON NUMBER             =         9.9999807919
 ...... END OF RHF CALCULATION ......
 CPU     0: STEP CPU TIME=     0.41 TOTAL CPU TIME=          1.6 (      0.0 MIN)
 TOTAL WALL CLOCK TIME=          2.2 SECONDS, CPU UTILIZATION IS    73.60%
 ..... END OF 1-ELECTRON GRADIENT ......
 CPU     0: STEP CPU TIME=     0.00 TOTAL CPU TIME=          1.6 (      0.0 MIN)
 TOTAL WALL CLOCK TIME=          2.2 SECONDS, CPU UTILIZATION IS    73.50%
 MEMORY FOR GRID POINT CONTRIBUTIONS TO THE DFT GRADIENT=    200597 WORDS.
 CPU     0: STEP CPU TIME=     0.09 TOTAL CPU TIME=          1.7 (      0.0 MIN)
 TOTAL WALL CLOCK TIME=          2.3 SECONDS, CPU UTILIZATION IS    74.60%
 ...... END OF 2-ELECTRON GRADIENT ......
 CPU     0: STEP CPU TIME=     0.02 TOTAL CPU TIME=          1.7 (      0.0 MIN)
 TOTAL WALL CLOCK TIME=          2.3 SECONDS, CPU UTILIZATION IS    74.79%

          NSERCH=  3     ENERGY=     -40.4880203

                                 -----------------------
                                 GRADIENT (HARTREE/BOHR)
                                 -----------------------
        ATOM     ZNUC       DE/DX         DE/DY         DE/DZ
 --------------------------------------------------------------
    1  C            6.0     0.0001835     0.0001444     0.0000116
    2  H            1.0    -0.0000369    -0.0000179     0.0000906
    3  H            1.0     0.0000406    -0.0000585     0.0000141
    4  H            1.0    -0.0001004     0.0000420    -0.0000476
    5  H            1.0    -0.0000867    -0.0001099    -0.0000687

          MAXIMUM GRADIENT = 0.0001835    RMS GRADIENT = 0.0000849

 NSERCH:   3  E=      -40.4880202983  GRAD. MAX=  0.0001835  R.M.S.=  0.0000849

          HESSIAN UPDATED USING THE BFGS FORMULA
             ACTUAL ENERGY CHANGE WAS   0.0000000667
          PREDICTED ENERGY CHANGE WAS  -0.0000004385 RATIO= -0.152
          MIN SEARCH, CORRECT HESSIAN, TRYING PURE NR STEP
               NR STEP HAS LENGTH         =   0.002544
          RADIUS OF STEP TAKEN=   0.00254  CURRENT TRUST RADIUS=   0.05000

 BEGINNING GEOMETRY SEARCH POINT NSERCH=   4 ...

 COORDINATES OF ALL ATOMS ARE (ANGS)
   ATOM   CHARGE       X              Y              Z
 ------------------------------------------------------------
 C           6.0  -3.3245547837  -0.1903977137   0.0000004353
 H           1.0  -2.2323297176  -0.1903841675   0.0000579631
 H           1.0  -3.6885824095  -0.0836723071   1.0242558168
 H           1.0  -3.6886750008  -1.1307679787  -0.4197172366
 H           1.0  -3.6886580884   0.6432121670  -0.6045969786

          INTERNUCLEAR DISTANCES (ANGS.)
          ------------------------------

                1 C          2 H          3 H          4 H          5 H     

   1 C       0.0000000    1.0922251 *  1.0922479 *  1.0922649 *  1.0922521 *
   2 H       1.0922251 *  0.0000000    1.7835472 *  1.7836688 *  1.7836431 *
   3 H       1.0922479 *  1.7835472 *  0.0000000    1.7836669 *  1.7836823 *
   4 H       1.0922649 *  1.7836688 *  1.7836669 *  0.0000000    1.7835880 *
   5 H       1.0922521 *  1.7836431 *  1.7836823 *  1.7835880 *  0.0000000  

  * ... LESS THAN  3.000

 ...... END OF ONE-ELECTRON INTEGRALS ......
 CPU     0: STEP CPU TIME=     0.00 TOTAL CPU TIME=          1.7 (      0.0 MIN)
 TOTAL WALL CLOCK TIME=          2.3 SECONDS, CPU UTILIZATION IS    74.79%
 TOTAL NUMBER OF NONZERO TWO-ELECTRON INTEGRALS =              189028
         13 INTEGRAL RECORDS WERE STORED ON DISK FILE  8.
  ...... END OF TWO-ELECTRON INTEGRALS .....
 CPU     0: STEP CPU TIME=     0.00 TOTAL CPU TIME=          1.7 (      0.0 MIN)
 TOTAL WALL CLOCK TIME=          2.3 SECONDS, CPU UTILIZATION IS    74.79%

          --------------------------
             R-B3LYP SCF CALCULATION
          --------------------------
         DENSITY MATRIX CONVERGENCE THRESHOLD=  1.00E-05
     COARSE -> FINE DFT GRID SWITCH THRESHOLD=  3.00E-04 (SWITCH IN $DFT)
                   HF -> DFT SWITCH THRESHOLD=  5.00E-03 (SWOFF IN $DFT)

 DFT CODE IS SWITCHING FROM THE FINE GRID NRAD= 96,  NLEB=  302
                      TO THE COARSE GRID NRAD0= 24, NLEB0=  110

 ITER EX DEM     TOTAL ENERGY        E CHANGE  DENSITY CHANGE    DIIS ERROR
          * * *   INITIATING DIIS PROCEDURE   * * *
   1  0  0      -40.4865013830   -40.4865013830   0.000566073   0.000928647
   2  1  0      -40.4865024628    -0.0000010798   0.000249254   0.000160115
 DFT CODE IS SWITCHING BACK TO THE FINE GRID
          * * *   INITIATING DIIS PROCEDURE   * * *
   3  2  0      -40.4880195752    -0.0015171124   0.000805066   0.001012254
   4  3  0      -40.4880206018    -0.0000010266   0.000102382   0.000126235
   5  4  0      -40.4880206051    -0.0000000032   0.000064098   0.000067330
   6  5  0      -40.4880206153    -0.0000000102   0.000011934   0.000017564
   7  6  0      -40.4880206160    -0.0000000007   0.000000712   0.000001361
   8  7  0      -40.4880206160    -0.0000000000   0.000000064   0.000000061

          -----------------
          DENSITY CONVERGED
          -----------------
     TIME TO FORM FOCK OPERATORS=       0.3 SECONDS (       0.0 SEC/ITER)
     TIME TO SOLVE SCF EQUATIONS=       0.0 SECONDS (       0.0 SEC/ITER)

 FINAL R-B3LYP ENERGY IS      -40.4880206160 AFTER   8 ITERATIONS
 DFT EXCHANGE + CORRELATION ENERGY =        -5.5547085270
 TOTAL ELECTRON NUMBER             =         9.9999803614
 ...... END OF RHF CALCULATION ......
 CPU     0: STEP CPU TIME=     0.36 TOTAL CPU TIME=          2.1 (      0.0 MIN)
 TOTAL WALL CLOCK TIME=          2.8 SECONDS, CPU UTILIZATION IS    75.83%
 ..... END OF 1-ELECTRON GRADIENT ......
 CPU     0: STEP CPU TIME=     0.00 TOTAL CPU TIME=          2.1 (      0.0 MIN)
 TOTAL WALL CLOCK TIME=          2.8 SECONDS, CPU UTILIZATION IS    75.83%
 MEMORY FOR GRID POINT CONTRIBUTIONS TO THE DFT GRADIENT=    200597 WORDS.
 CPU     0: STEP CPU TIME=     0.05 TOTAL CPU TIME=          2.1 (      0.0 MIN)
 TOTAL WALL CLOCK TIME=          2.9 SECONDS, CPU UTILIZATION IS    74.98%
 ...... END OF 2-ELECTRON GRADIENT ......
 CPU     0: STEP CPU TIME=     0.02 TOTAL CPU TIME=          2.2 (      0.0 MIN)
 TOTAL WALL CLOCK TIME=          2.9 SECONDS, CPU UTILIZATION IS    75.05%

          NSERCH=  4     ENERGY=     -40.4880206

                                 -----------------------
                                 GRADIENT (HARTREE/BOHR)
                                 -----------------------
        ATOM     ZNUC       DE/DX         DE/DY         DE/DZ
 --------------------------------------------------------------
    1  C            6.0    -0.0000175    -0.0000133    -0.0000016
    2  H            1.0     0.0000325     0.0000035    -0.0000018
    3  H            1.0    -0.0000070     0.0000072     0.0000283
    4  H            1.0    -0.0000044    -0.0000254    -0.0000107
    5  H            1.0    -0.0000036     0.0000279    -0.0000142

          MAXIMUM GRADIENT = 0.0000325    RMS GRADIENT = 0.0000168

 NSERCH:   4  E=      -40.4880206160  GRAD. MAX=  0.0000325  R.M.S.=  0.0000168


      ***** EQUILIBRIUM GEOMETRY LOCATED *****
 COORDINATES OF ALL ATOMS ARE (ANGS)
   ATOM   CHARGE       X              Y              Z
 ------------------------------------------------------------
 C           6.0  -3.3245547837  -0.1903977137   0.0000004353
 H           1.0  -2.2323297176  -0.1903841675   0.0000579631
 H           1.0  -3.6885824095  -0.0836723071   1.0242558168
 H           1.0  -3.6886750008  -1.1307679787  -0.4197172366
 H           1.0  -3.6886580884   0.6432121670  -0.6045969786

          INTERNUCLEAR DISTANCES (ANGS.)
          ------------------------------

                1 C          2 H          3 H          4 H          5 H     

   1 C       0.0000000    1.0922251 *  1.0922479 *  1.0922649 *  1.0922521 *
   2 H       1.0922251 *  0.0000000    1.7835472 *  1.7836688 *  1.7836431 *
   3 H       1.0922479 *  1.7835472 *  0.0000000    1.7836669 *  1.7836823 *
   4 H       1.0922649 *  1.7836688 *  1.7836669 *  0.0000000    1.7835880 *
   5 H       1.0922521 *  1.7836431 *  1.7836823 *  1.7835880 *  0.0000000  

  * ... LESS THAN  3.000


          NUCLEAR ENERGY    =       13.4077443363
          ELECTRONIC ENERGY =      -53.8957649523
          TOTAL ENERGY      =      -40.4880206160

          ------------------
          MOLECULAR ORBITALS
          ------------------

                      1          2          3          4          5
                  -10.1636    -0.6869    -0.3848    -0.3848    -0.3848
                     A          A          A          A          A   
    1  C  1  S   -0.992840  -0.199424   0.000002   0.000002  -0.000000
    2  C  1  S   -0.049564   0.386723   0.000000  -0.000005   0.000004
    3  C  1  X    0.000000   0.000008   0.259255   0.311594   0.177849
    4  C  1  Y   -0.000000   0.000004  -0.002934   0.221253  -0.383361
    5  C  1  Z   -0.000000   0.000001   0.358757  -0.223358  -0.131656
    6  C  1  S    0.014531   0.344115  -0.000026  -0.000004  -0.000006
    7  C  1  X    0.000000   0.000016   0.117253   0.140907   0.080446
    8  C  1  Y    0.000000  -0.000004  -0.001337   0.100070  -0.173398
    9  C  1  Z    0.000000   0.000008   0.162253  -0.101026  -0.059542
   10  C  1 XX    0.009130  -0.009522   0.013376   0.016077   0.009176
   11  C  1 YY    0.009130  -0.009525  -0.019114  -0.002755   0.004271
   12  C  1 ZZ    0.009130  -0.009521   0.005738  -0.013322  -0.013447
   13  C  1 XY   -0.000000  -0.000001   0.000087  -0.006588   0.011420
   14  C  1 XZ   -0.000000   0.000002  -0.010685   0.006652   0.003922
   15  C  1 YZ    0.000000   0.000000   0.004750  -0.011757   0.013673
   16  H  2  S    0.000224   0.137787   0.172545   0.207379   0.118366
   17  H  2  S   -0.002546   0.045567   0.153424   0.184424   0.105254
   18  H  2  X   -0.000176  -0.013129  -0.004230  -0.005084  -0.002901
   19  H  2  Y    0.000000   0.000000  -0.000056   0.004236  -0.007340
   20  H  2  Z    0.000000  -0.000001   0.006868  -0.004277  -0.002521
   21  H  3  S    0.000224   0.137782   0.166196  -0.194137  -0.146555
   22  H  3  S   -0.002546   0.045576   0.147788  -0.172639  -0.130327
   23  H  3  X    0.000059   0.004376   0.007916   0.002520   0.000803
   24  H  3  Y   -0.000017  -0.001283  -0.000921   0.005247  -0.006576
   25  H  3  Z   -0.000165  -0.012312  -0.001436   0.005424   0.004802
   26  H  4  S    0.000224   0.137778  -0.147580  -0.138795   0.213882
   27  H  4  S   -0.002546   0.045577  -0.131226  -0.123429   0.190206
   28  H  4  X    0.000059   0.004376   0.002342   0.003501   0.007203
   29  H  4  Y    0.000151   0.011304  -0.006827  -0.002132   0.002472
   30  H  4  Z    0.000068   0.005045   0.003847  -0.007119   0.001859
   31  H  5  S    0.000224   0.137783  -0.191167   0.125542  -0.185691
   32  H  5  S   -0.002546   0.045591  -0.169974   0.111633  -0.165127
   33  H  5  X    0.000059   0.004377   0.001568   0.008196   0.000107
   34  H  5  Y   -0.000134  -0.010021   0.007719  -0.000869   0.000211
   35  H  5  Z    0.000097   0.007268   0.001231  -0.000574  -0.007997

                      6          7          8          9         10
                    0.1213     0.1799     0.1799     0.1799     0.5325
                     A          A          A          A          A   
    1  C  1  S    0.163250   0.000008   0.000001   0.000000   0.000001
    2  C  1  S   -0.197357  -0.000026  -0.000006  -0.000030  -0.000049
    3  C  1  X    0.000007   0.061333   0.222371   0.303451  -0.381316
    4  C  1  Y    0.000013  -0.375251   0.057957   0.033400   0.631915
    5  C  1  Z    0.000002  -0.026664  -0.304115   0.228256  -0.109426
    6  C  1  S   -2.608016  -0.000098   0.000024   0.000146   0.000102
    7  C  1  X   -0.000060   0.216376   0.784392   1.070491   0.741451
    8  C  1  Y    0.000082  -1.323686   0.204436   0.117763  -1.228602
    9  C  1  Z   -0.000001  -0.094014  -1.072768   0.805267   0.212869
   10  C  1 XX    0.016984  -0.003231  -0.011700  -0.015965  -0.038750
   11  C  1 YY    0.016987  -0.003612  -0.004256   0.016436   0.012938
   12  C  1 ZZ    0.016985   0.006835   0.015958  -0.000483   0.025804
   13  C  1 XY   -0.000000  -0.011401   0.001762   0.001016  -0.037072
   14  C  1 XZ    0.000000  -0.000808  -0.009239   0.006932   0.006422
   15  C  1 YZ    0.000000  -0.014995   0.006374  -0.001641  -0.052688
   16  H  2  S    0.017757  -0.020255  -0.073398  -0.100126  -0.252728
   17  H  2  S    0.990689  -0.299402  -1.085564  -1.481469  -0.126788
   18  H  2  X    0.005156  -0.000573  -0.002079  -0.002837   0.022034
   19  H  2  Y    0.000001  -0.011333   0.001750   0.001009  -0.017022
   20  H  2  Z    0.000001  -0.000805  -0.009182   0.006890   0.002951
   21  H  3  S    0.017750   0.027100   0.116713  -0.038317   0.057154
   22  H  3  S    0.990581   0.400893   1.726351  -0.567110   0.028549
   23  H  3  X   -0.001718   0.000769   0.002053   0.010693   0.011159
   24  H  3  Y    0.000504  -0.011015   0.003117   0.000560  -0.017284
   25  H  3  Z    0.004838   0.002241   0.003932   0.002585   0.000457
   26  H  4  S    0.017761  -0.103272   0.002365   0.071792  -0.248460
   27  H  4  S    0.990665  -1.527279   0.034999   1.062263  -0.124528
   28  H  4  X   -0.001720   0.005977   0.006622   0.006294   0.006418
   29  H  4  Y   -0.004441  -0.000678   0.001504  -0.006400  -0.026979
   30  H  4  Z   -0.001983   0.003948  -0.009294   0.003584  -0.001496
   31  H  5  S    0.017744   0.096420  -0.045678   0.066657   0.444032
   32  H  5  S    0.990526   1.425966  -0.675801   0.986176   0.222696
   33  H  5  X   -0.001720  -0.001998   0.008542   0.006500   0.017164
   34  H  5  Y    0.003938  -0.002515  -0.002429   0.007105  -0.032792
   35  H  5  Z   -0.002857  -0.007199  -0.006154   0.002470   0.014389

                     11         12         13         14         15
                    0.5325     0.5325     0.8775     0.8775     0.8775
                     A          A          A          A          A   
    1  C  1  S   -0.000000  -0.000003   0.000001  -0.000006  -0.000017
    2  C  1  S   -0.000023  -0.000044  -0.000116   0.000074   0.000110
    3  C  1  X   -0.525888  -0.367007  -0.098390  -0.509208  -0.565248
    4  C  1  Y   -0.235263  -0.319433   0.752140  -0.150707   0.004849
    5  C  1  Z    0.474087  -0.565632   0.114265   0.553593  -0.518604
    6  C  1  S    0.000066   0.000152   0.000256  -0.000125  -0.000118
    7  C  1  X    1.022535   0.713791   0.168234   0.870678   0.966513
    8  C  1  Y    0.457447   0.621106  -1.286045   0.257692  -0.008292
    9  C  1  Z   -0.921823   1.100013  -0.195378  -0.946573   0.886761
   10  C  1 XX   -0.053439  -0.037298   0.031653   0.163838   0.181861
   11  C  1 YY   -0.000524   0.064368   0.061357   0.027457  -0.202906
   12  C  1 ZZ    0.053966  -0.027077  -0.093022  -0.191295   0.021026
   13  C  1 XY    0.013805   0.018743   0.139714  -0.027996   0.000900
   14  C  1 XZ   -0.027818   0.033186   0.021222   0.102834  -0.096331
   15  C  1 YZ    0.030635   0.010842   0.178875  -0.082255   0.042969
   16  H  2  S   -0.348556  -0.243257   0.108919   0.563602   0.625578
   17  H  2  S   -0.174806  -0.122219  -0.231622  -1.198339  -1.330157
   18  H  2  X    0.030383   0.021209   0.013762   0.071205   0.079046
   19  H  2  Y    0.006339   0.008608   0.049916  -0.010001   0.000322
   20  H  2  Z   -0.012768   0.015242   0.007584   0.036746  -0.034420
   21  H  3  S    0.395592  -0.291155  -0.236250  -0.746255   0.329128
   22  H  3  S    0.198392  -0.146205   0.502262   1.586556  -0.699844
   23  H  3  X    0.020301   0.005378   0.008139   0.012540  -0.057958
   24  H  3  Y    0.004540   0.009932   0.045614  -0.023584   0.006313
   25  H  3  Z   -0.030035   0.027949  -0.033684  -0.093620   0.023087
   26  H  4  S    0.129680   0.407388   0.729141  -0.096100  -0.424632
   27  H  4  S    0.065048   0.204459  -1.550191   0.204281   0.902604
   28  H  4  X    0.016185   0.016214  -0.051803  -0.027823  -0.011146
   29  H  4  Y    0.011533   0.024928  -0.067015   0.005407   0.068422
   30  H  4  Z   -0.010457   0.022531  -0.044606   0.043615  -0.004027
   31  H  5  S   -0.176734   0.126989  -0.601733   0.278576  -0.530505
   32  H  5  S   -0.088679   0.063844   1.279291  -0.592295   1.127724
   33  H  5  X    0.011430   0.011862   0.030836  -0.051091  -0.004573
   34  H  5  Y    0.012615   0.004097  -0.035630   0.029607  -0.075104
   35  H  5  Z   -0.017330   0.018516   0.069624   0.008012   0.020281

     ---------------------------------------------------------------------
     PROPERTIES FOR THE B3LYP    DFT FUNCTIONAL (RHF  TYPE) DENSITY MATRIX
     ---------------------------------------------------------------------

          -----------------
          ENERGY COMPONENTS
          -----------------

         WAVEFUNCTION NORMALIZATION =       1.0000000000

                ONE ELECTRON ENERGY =     -79.7940515259
                TWO ELECTRON ENERGY =      25.8982865736
           NUCLEAR REPULSION ENERGY =      13.4077443363
                                      ------------------
                       TOTAL ENERGY =     -40.4880206160

 ELECTRON-ELECTRON POTENTIAL ENERGY =      25.8982865736
  NUCLEUS-ELECTRON POTENTIAL ENERGY =    -119.8690403592
   NUCLEUS-NUCLEUS POTENTIAL ENERGY =      13.4077443363
                                      ------------------
             TOTAL POTENTIAL ENERGY =     -80.5630094493
               TOTAL KINETIC ENERGY =      40.0749888334
                 VIRIAL RATIO (V/T) =       2.0103064728

          ---------------------------------------
          MULLIKEN AND LOWDIN POPULATION ANALYSES
          ---------------------------------------

     ATOMIC MULLIKEN POPULATION IN EACH MOLECULAR ORBITAL

                      1          2          3          4          5

                  2.000000   2.000000   2.000000   2.000000   2.000000

    1             1.998109   1.281744   1.063077   1.063068   1.063097
    2             0.000473   0.179560   0.240979   0.347055   0.114645
    3             0.000473   0.179560   0.223749   0.304442   0.174505
    4             0.000473   0.179553   0.176928   0.156761   0.369026
    5             0.000473   0.179582   0.295267   0.128674   0.278727

               ----- POPULATIONS IN EACH AO -----
                             MULLIKEN      LOWDIN
              1  C  1  S      1.99174     1.98001
              2  C  1  S      0.68453     0.35173
              3  C  1  X      0.70906     0.61403
              4  C  1  Y      0.70904     0.61515
              5  C  1  Z      0.70905     0.61450
              6  C  1  S      0.64678     0.34750
              7  C  1  X      0.34566     0.48934
              8  C  1  Y      0.34569     0.49004
              9  C  1  Z      0.34568     0.48963
             10  C  1 XX     -0.00883     0.14624
             11  C  1 YY     -0.01022     0.14417
             12  C  1 ZZ     -0.01022     0.14418
             13  C  1 XY      0.00279     0.00508
             14  C  1 XZ      0.00278     0.00505
             15  C  1 YZ      0.00557     0.01016
             16  H  2  S      0.52563     0.48909
             17  H  2  S      0.34516     0.36918
             18  H  2  X      0.00722     0.01839
             19  H  2  Y      0.00235     0.00675
             20  H  2  Z      0.00235     0.00675
             21  H  3  S      0.52562     0.48816
             22  H  3  S      0.34519     0.36904
             23  H  3  X      0.00289     0.00796
             24  H  3  Y      0.00240     0.00685
             25  H  3  Z      0.00663     0.01682
             26  H  4  S      0.52562     0.48727
             27  H  4  S      0.34520     0.36890
             28  H  4  X      0.00289     0.00790
             29  H  4  Y      0.00596     0.01514
             30  H  4  Z      0.00307     0.00833
             31  H  5  S      0.52561     0.48667
             32  H  5  S      0.34518     0.36880
             33  H  5  X      0.00289     0.00787
             34  H  5  Y      0.00519     0.01325
             35  H  5  Z      0.00384     0.01008

          ----- MULLIKEN ATOMIC OVERLAP POPULATIONS -----
          (OFF-DIAGONAL ELEMENTS NEED TO BE MULTIPLIED BY 2)

             1           2           3           4           5

    1    4.8976181
    2    0.3928578   0.5734583
    3    0.3928643  -0.0278779   0.5734651
    4    0.3928702  -0.0278675  -0.0278627   0.5734747
    5    0.3928850  -0.0278599  -0.0278590  -0.0278735   0.5734299

          TOTAL MULLIKEN AND LOWDIN ATOMIC POPULATIONS
       ATOM         MULL.POP.    CHARGE          LOW.POP.     CHARGE
    1 C             6.469095   -0.469095         6.446806   -0.446806
    2 H             0.882711    0.117289         0.890164    0.109836
    3 H             0.882730    0.117270         0.888821    0.111179
    4 H             0.882741    0.117259         0.887545    0.112455
    5 H             0.882723    0.117277         0.886663    0.113337

          -------------------------------
          BOND ORDER AND VALENCE ANALYSIS     BOND ORDER THRESHOLD=0.050
          -------------------------------

                   BOND                       BOND                       BOND
  ATOM PAIR DIST  ORDER      ATOM PAIR DIST  ORDER      ATOM PAIR DIST  ORDER
    1   2  1.092  0.978        1   3  1.092  0.978        1   4  1.092  0.978
    1   5  1.092  0.978

                       TOTAL       BONDED        FREE
      ATOM            VALENCE     VALENCE     VALENCE
    1 C                 3.910       3.910       0.000
    2 H                 0.955       0.955       0.000
    3 H                 0.955       0.955       0.000
    4 H                 0.955       0.955       0.000
    5 H                 0.955       0.955       0.000

          ---------------------
          ELECTROSTATIC MOMENTS
          ---------------------

 POINT   1           X           Y           Z (BOHR)    CHARGE
                -6.282501   -0.359802    0.000001        0.00 (A.U.)
         DX          DY          DZ         /D/  (DEBYE)
    -0.000035    0.000065   -0.000040    0.000084
 ...... END OF PROPERTY EVALUATION ......
 CPU     0: STEP CPU TIME=     0.00 TOTAL CPU TIME=          2.2 (      0.0 MIN)
 TOTAL WALL CLOCK TIME=          2.9 SECONDS, CPU UTILIZATION IS    75.05%
  $VIB   
          IVIB=   0 IATOM=   0 ICOORD=   0 E=      -40.4880206160
 -1.749099588E-05-1.327491920E-05-1.576510701E-06 3.252395332E-05 3.544383422E-06
 -1.768370116E-06-7.016611563E-06 7.227521937E-06 2.825542790E-05-4.374477226E-06
 -2.538494840E-05-1.068032463E-05-3.641868649E-06 2.788796224E-05-1.423022245E-05
 -3.547370554E-05 6.497763290E-05-3.972581384E-05
 ......END OF GEOMETRY SEARCH......
 CPU     0: STEP CPU TIME=     0.00 TOTAL CPU TIME=          2.2 (      0.0 MIN)
 TOTAL WALL CLOCK TIME=          2.9 SECONDS, CPU UTILIZATION IS    75.05%
                991049  WORDS OF DYNAMIC MEMORY USED
 EXECUTION OF GAMESS TERMINATED NORMALLY 23:16:24 22-MAY-2024    
 DDI: 263640 bytes (0.3 MB / 0 MWords) used by master data server.

 ----------------------------------------
 CPU timing information for all processes
 ========================================
 0: 2.093750 + 0.062500 = 2.156250
 1: 2.109375 + 0.062500 = 2.171875
 2: 0.437500 + 0.890625 = 1.328125
 3: 0.359375 + 0.781250 = 1.140625
 ----------------------------------------
           Disk usage (in bytes)       
 ========================================
05/22/2024  09:50 PM               482 ch4_geopt_b3lyp_6-31Gdp.F05
05/22/2024  11:16 PM         1,260,112 ch4_geopt_b3lyp_6-31Gdp.F08
05/22/2024  11:16 PM         1,080,096 ch4_geopt_b3lyp_6-31Gdp.F08.001
05/22/2024  11:16 PM         6,282,240 ch4_geopt_b3lyp_6-31Gdp.F10
05/22/2024  11:16 PM         1,552,744 ch4_geopt_b3lyp_6-31Gdp.F22
05/22/2024  11:16 PM         1,552,744 ch4_geopt_b3lyp_6-31Gdp.F22.001
05/22/2024  11:16 PM            21,783 ch4_geopt_b3lyp_6-31Gdp.GMS.ENV
05/22/2024  11:16 PM               136 ch4_geopt_b3lyp_6-31Gdp.processes.mpd
 ----------------------------------------
            Local date and time          
 ========================================
Wed 05/22/2024 - 23:16:24.42                          
