 argument  1 = /home/milias/Work/open-collection/theoretical_chemistry/projects/nmr_diplomovky/derivaty_markerov/derivative_7_Ivan/nwchem/geometry_optimization/6-311++g2d_2p/der7.geomopt_pbe0_cosmo-chcl3_6-311++g2d_2p.nw
 


============================== echo of input deck ==============================
echo

start molecule

memory total 40 gb

print low

title "der7"
charge 0

dft
  mult 1
end

geometry units angstroms print xyz autosym
  #load format xyz der1.pbe0_tz2p_good_cosmo-chcl3_optimized_geom.xyz
  load format xyz der7.geopt_freq_nmr_pbe0_tz2p_good_cosmo-chcl3_converged_geometry.xyz
end

basis
  * library 6-311++G(2d,2p)
end

dft
  direct
  grid fine
  xc pbe0
  mult 1
# Reduce output during geometry optimization
  noprint "final vectors analysis"
end

#end

driver
  tight
  maxiter 9999
  xyz der7_pbe0_geom_6-311++g2d_2p
end

cosmo
  solvent chcl3
end

task dft optimize
================================================================================


                                         
                                         
 
 
             Northwest Computational Chemistry Package (NWChem) 7.0.1
             --------------------------------------------------------
 
 
                    Environmental Molecular Sciences Laboratory
                       Pacific Northwest National Laboratory
                                Richland, WA 99352
 
                              Copyright (c) 1994-2020
                       Pacific Northwest National Laboratory
                            Battelle Memorial Institute
 
             NWChem is an open-source computational chemistry package
                        distributed under the terms of the
                      Educational Community License (ECL) 2.0
             A copy of the license is included with this distribution
                              in the LICENSE.TXT file
 
                                  ACKNOWLEDGMENT
                                  --------------

            This software and its documentation were developed at the
            EMSL at Pacific Northwest National Laboratory, a multiprogram
            national laboratory, operated for the U.S. Department of Energy
            by Battelle under Contract Number DE-AC05-76RL01830. Support
            for this work was provided by the Department of Energy Office
            of Biological and Environmental Research, Office of Basic
            Energy Sciences, and the Office of Advanced Scientific Computing.


           Job information
           ---------------

    hostname        = comp33.grid.umb.sk
    program         = /home/milias/Work/qch/software/nwchem_suite/nwchem_master/bin/LINUX64/nwchem
    date            = Wed Oct 20 14:36:31 2021

    compiled        = Sat_Sep_11_13:54:11_2021
    source          = /home/milias/Work/qch/software/nwchem_suite/nwchem_master
    nwchem branch   = 7.0.0
    nwchem revision = nwchem_on_git-2853-g04c637f
    ga revision     = 5.8.0
    use scalapack   = F
    input           = /home/milias/Work/open-collection/theoretical_chemistry/projects/nmr_diplomovky/derivaty_markerov/derivative_7_Ivan/nwchem/geometry_optimization/6-311++g2d_2p/der7.geomopt_pbe0_cosmo-chcl3_6-311++g2d_2p.nw
    prefix          = molecule.
    data base       = ./molecule.db
    status          = startup
    nproc           =       12
    time left       =     -1s



           Memory information
           ------------------

    heap     = 1342177278 doubles =  10240.0 Mbytes
    stack    = 1342177275 doubles =  10240.0 Mbytes
    global   = 2684354560 doubles =  20480.0 Mbytes (distinct from heap & stack)
    total    = 5368709113 doubles =  40960.0 Mbytes
    verify   = yes
    hardfail = no 


           Directory information
           ---------------------
 
  0 permanent = .
  0 scratch   = .
 
 
 
 
                                NWChem Input Module
                                -------------------
 
 
                                       der7
                                       ----

 Scaling coordinates for geometry "geometry" by  1.889725989
 (inverse scale =  0.529177249)


          ------
          auto-z
          ------
  no constraints, skipping   0.000000000000000E+000
  no constraints, skipping   0.000000000000000E+000
 
 
                             Geometry "geometry" -> ""
                             -------------------------
 
 Output coordinates in angstroms (scale by  1.889725989 to convert to a.u.)
 
  No.       Tag          Charge          X              Y              Z
 ---- ---------------- ---------- -------------- -------------- --------------
    1 O                    8.0000    -0.50216668     0.85537211    -0.12834916
    2 P                   15.0000    -0.63064458    -0.32262092     0.97996985
    3 O                    8.0000     0.81731041    -1.07428424     0.93530794
    4 O                    8.0000    -1.35852625    -1.46521994     0.06116893
    5 C                    6.0000     0.91464622    -2.08240142    -0.10218592
    6 C                    6.0000    -0.54003015    -2.63146921    -0.18307282
    7 C                    6.0000     1.37877018    -1.41794955    -1.38943746
    8 C                    6.0000     1.93645133    -3.10318597     0.35292889
    9 C                    6.0000    -0.85332417    -3.64722040     0.90495537
   10 C                    6.0000    -0.91535686    -3.18562729    -1.54186113
   11 H                    1.0000     1.57599348    -2.16510174    -2.15916846
   12 H                    1.0000     0.64489947    -0.70635141    -1.76420937
   13 H                    1.0000     2.30697768    -0.88070084    -1.19121678
   14 H                    1.0000     1.71188744    -3.48025475     1.34896416
   15 H                    1.0000     1.96663009    -3.94444128    -0.34221403
   16 H                    1.0000     2.92657159    -2.64638347     0.37160271
   17 H                    1.0000    -0.34207195    -4.59292309     0.72299894
   18 H                    1.0000    -0.56491609    -3.27844384     1.89026687
   19 H                    1.0000    -1.92744661    -3.83492259     0.90968779
   20 H                    1.0000    -0.26399523    -4.02202605    -1.80285109
   21 H                    1.0000    -1.94176217    -3.55327708    -1.51658532
   22 H                    1.0000    -0.83963082    -2.42687038    -2.31834208
   23 C                    6.0000    -0.81161689     2.21103554     0.23479712
   24 C                    6.0000     0.42840678     3.09664450     0.00367522
   25 H                    1.0000    -2.87631653     1.93572748    -0.26216086
   26 H                    1.0000    -1.90303754     2.55280710    -1.59921943
   27 C                    6.0000     0.86121657     3.07873324    -1.46025626
   28 C                    6.0000     1.57155175     2.57622489     0.87390018
   29 H                    1.0000    -2.37016686     3.62554514    -0.26749123
   30 C                    6.0000    -2.06065462     2.61199595    -0.52157872
   31 H                    1.0000    -1.02815055     2.23700245     1.31139438
   32 C                    6.0000     0.10575282     4.52859834     0.42940749
   33 H                    1.0000     2.44789781     3.21933446     0.76737454
   34 H                    1.0000     1.85788219     1.56240111     0.59192528
   35 H                    1.0000     1.28861102     2.56824952     1.93042760
   36 H                    1.0000     0.09981115     3.50794677    -2.11433398
   37 H                    1.0000     1.06666725     2.06045355    -1.79421485
   38 H                    1.0000     1.77310873     3.66729554    -1.58526188
   39 H                    1.0000     1.00991617     5.13972713     0.38740363
   40 H                    1.0000    -0.27136068     4.56266354     1.45519830
   41 H                    1.0000    -0.63614787     4.99264128    -0.22217622
 
      Atomic Mass 
      ----------- 
 
      O                 15.994910
      P                 30.973760
      C                 12.000000
      H                  1.007825
 

 Effective nuclear repulsion energy (a.u.)    1460.5273199254

            Nuclear Dipole moment (a.u.) 
            ----------------------------
        X                 Y               Z
 ---------------- ---------------- ----------------
    -0.0000000000     0.0000000000    -0.0000000000
 


                                Z-matrix (autoz)
                                -------- 

 Units are Angstrom for bonds and degrees for angles
 
      Type          Name      I     J     K     L     M      Value
      ----------- --------  ----- ----- ----- ----- ----- ----------
    1 Stretch                  1     2                       1.62251
    2 Stretch                  1    23                       1.43717
    3 Stretch                  2     3                       1.63204
    4 Stretch                  2     4                       1.63693
    5 Stretch                  3     5                       1.44989
    6 Stretch                  4     6                       1.44559
    7 Stretch                  5     6                       1.55695
    8 Stretch                  5     7                       1.52116
    9 Stretch                  5     8                       1.51434
   10 Stretch                  6     9                       1.52109
   11 Stretch                  6    10                       1.51468
   12 Stretch                  7    11                       1.09070
   13 Stretch                  7    12                       1.08876
   14 Stretch                  7    13                       1.09064
   15 Stretch                  8    14                       1.08844
   16 Stretch                  8    15                       1.09172
   17 Stretch                  8    16                       1.09058
   18 Stretch                  9    17                       1.09034
   19 Stretch                  9    18                       1.09088
   20 Stretch                  9    19                       1.09041
   21 Stretch                 10    20                       1.09176
   22 Stretch                 10    21                       1.09056
   23 Stretch                 10    22                       1.08829
   24 Stretch                 23    24                       1.54123
   25 Stretch                 23    30                       1.51426
   26 Stretch                 23    31                       1.09846
   27 Stretch                 24    27                       1.52668
   28 Stretch                 24    28                       1.52804
   29 Stretch                 24    32                       1.52835
   30 Stretch                 25    30                       1.09084
   31 Stretch                 26    30                       1.09071
   32 Stretch                 27    36                       1.09169
   33 Stretch                 27    37                       1.09116
   34 Stretch                 27    38                       1.09251
   35 Stretch                 28    33                       1.09221
   36 Stretch                 28    34                       1.09057
   37 Stretch                 28    35                       1.09379
   38 Stretch                 29    30                       1.08979
   39 Stretch                 32    39                       1.09213
   40 Stretch                 32    40                       1.09344
   41 Stretch                 32    41                       1.09102
   42 Bend                     1     2     3               104.20776
   43 Bend                     1     2     4                99.12420
   44 Bend                     1    23    24               109.32303
   45 Bend                     1    23    30               107.52757
   46 Bend                     1    23    31               108.20361
   47 Bend                     2     1    23               119.68301
   48 Bend                     2     3     5               113.53931
   49 Bend                     2     4     6               113.96619
   50 Bend                     3     2     4                93.30580
   51 Bend                     3     5     6               102.68883
   52 Bend                     3     5     7               108.80239
   53 Bend                     3     5     8               107.39375
   54 Bend                     4     6     5               103.63414
   55 Bend                     4     6     9               107.53374
   56 Bend                     4     6    10               107.84404
   57 Bend                     5     6     9               113.00254
   58 Bend                     5     6    10               114.02538
   59 Bend                     5     7    11               110.68039
   60 Bend                     5     7    12               111.78481
   61 Bend                     5     7    13               108.72590
   62 Bend                     5     8    14               111.67444
   63 Bend                     5     8    15               110.28685
   64 Bend                     5     8    16               109.59683
   65 Bend                     6     5     7               113.27520
   66 Bend                     6     5     8               114.09966
   67 Bend                     6     9    17               111.29998
   68 Bend                     6     9    18               111.46147
   69 Bend                     6     9    19               108.72014
   70 Bend                     6    10    20               110.29755
   71 Bend                     6    10    21               109.61892
   72 Bend                     6    10    22               111.57605
   73 Bend                     7     5     8               110.05310
   74 Bend                     9     6    10               110.26281
   75 Bend                    11     7    12               109.06745
   76 Bend                    11     7    13               108.16849
   77 Bend                    12     7    13               108.31619
   78 Bend                    14     8    15               108.74987
   79 Bend                    14     8    16               108.46658
   80 Bend                    15     8    16               107.97331
   81 Bend                    17     9    18               108.66144
   82 Bend                    17     9    19               108.25875
   83 Bend                    18     9    19               108.34301
   84 Bend                    20    10    21               107.98637
   85 Bend                    20    10    22               108.78693
   86 Bend                    21    10    22               108.48571
   87 Bend                    23    24    27               111.41675
   88 Bend                    23    24    28               108.71152
   89 Bend                    23    24    32               109.07131
   90 Bend                    23    30    25               109.50112
   91 Bend                    23    30    26               111.09710
   92 Bend                    23    30    29               111.35054
   93 Bend                    24    23    30               115.88675
   94 Bend                    24    23    31               106.97720
   95 Bend                    24    27    36               111.85008
   96 Bend                    24    27    37               110.96557
   97 Bend                    24    27    38               109.87849
   98 Bend                    24    28    33               110.13127
   99 Bend                    24    28    34               111.45571
  100 Bend                    24    28    35               111.04283
  101 Bend                    24    32    39               109.80317
  102 Bend                    24    32    40               111.30431
  103 Bend                    24    32    41               112.06774
  104 Bend                    25    30    26               108.02157
  105 Bend                    25    30    29               107.98494
  106 Bend                    26    30    29               108.77606
  107 Bend                    27    24    28               109.26961
  108 Bend                    27    24    32               109.75210
  109 Bend                    28    24    32               108.56594
  110 Bend                    30    23    31               108.70541
  111 Bend                    33    28    34               108.14976
  112 Bend                    33    28    35               107.82183
  113 Bend                    34    28    35               108.11283
  114 Bend                    36    27    37               108.35199
  115 Bend                    36    27    38               107.56508
  116 Bend                    37    27    38               108.09326
  117 Bend                    39    32    40               107.70850
  118 Bend                    39    32    41               107.57763
  119 Bend                    40    32    41               108.20988
  120 Torsion                  1     2     3     5         -84.36146
  121 Torsion                  1     2     4     6         113.59110
  122 Torsion                  1    23    24    27          60.30244
  123 Torsion                  1    23    24    28         -60.17009
  124 Torsion                  1    23    24    32        -178.38522
  125 Torsion                  1    23    30    25          58.90466
  126 Torsion                  1    23    30    26         -60.33164
  127 Torsion                  1    23    30    29         178.25363
  128 Torsion                  2     1    23    24         120.77401
  129 Torsion                  2     1    23    30        -112.64732
  130 Torsion                  2     1    23    31           4.60412
  131 Torsion                  2     3     5     6         -32.68073
  132 Torsion                  2     3     5     7          87.61961
  133 Torsion                  2     3     5     8        -153.28698
  134 Torsion                  2     4     6     5         -27.66390
  135 Torsion                  2     4     6     9          92.22567
  136 Torsion                  2     4     6    10        -148.87557
  137 Torsion                  3     2     1    23        -127.34146
  138 Torsion                  3     2     4     6           8.62335
  139 Torsion                  3     5     6     4          35.52218
  140 Torsion                  3     5     6     9         -80.56595
  141 Torsion                  3     5     6    10         152.48050
  142 Torsion                  3     5     7    11         173.31189
  143 Torsion                  3     5     7    12         -64.89191
  144 Torsion                  3     5     7    13          54.63460
  145 Torsion                  3     5     8    14          52.63415
  146 Torsion                  3     5     8    15         173.67699
  147 Torsion                  3     5     8    16         -67.58455
  148 Torsion                  4     2     1    23         136.86697
  149 Torsion                  4     2     3     5          15.91952
  150 Torsion                  4     6     5     7         -81.63892
  151 Torsion                  4     6     5     8         151.39623
  152 Torsion                  4     6     9    17         174.28729
  153 Torsion                  4     6     9    18         -64.22619
  154 Torsion                  4     6     9    19          55.13161
  155 Torsion                  4     6    10    20         175.43730
  156 Torsion                  4     6    10    21         -65.78804
  157 Torsion                  4     6    10    22          54.40610
  158 Torsion                  5     6     9    17         -71.96636
  159 Torsion                  5     6     9    18          49.52016
  160 Torsion                  5     6     9    19         168.87796
  161 Torsion                  5     6    10    20          60.94202
  162 Torsion                  5     6    10    21         179.71668
  163 Torsion                  5     6    10    22         -60.08919
  164 Torsion                  6     5     7    11         -73.16917
  165 Torsion                  6     5     7    12          48.62703
  166 Torsion                  6     5     7    13         168.15354
  167 Torsion                  6     5     8    14         -60.46273
  168 Torsion                  6     5     8    15          60.58011
  169 Torsion                  6     5     8    16         179.31857
  170 Torsion                  7     5     6     9         162.27295
  171 Torsion                  7     5     6    10          35.31941
  172 Torsion                  7     5     8    14         170.92149
  173 Torsion                  7     5     8    15         -68.03567
  174 Torsion                  7     5     8    16          50.70278
  175 Torsion                  8     5     6     9          35.30809
  176 Torsion                  8     5     6    10         -91.64545
  177 Torsion                  8     5     7    11          55.89583
  178 Torsion                  8     5     7    12         177.69203
  179 Torsion                  8     5     7    13         -62.78146
  180 Torsion                  9     6    10    20         -67.41970
  181 Torsion                  9     6    10    21          51.35496
  182 Torsion                  9     6    10    22         171.54909
  183 Torsion                 10     6     9    17          56.95206
  184 Torsion                 10     6     9    18         178.43858
  185 Torsion                 10     6     9    19         -62.20362
  186 Torsion                 23    24    27    36          63.81505
  187 Torsion                 23    24    27    37         -57.31091
  188 Torsion                 23    24    27    38        -176.79619
  189 Torsion                 23    24    28    33        -177.05982
  190 Torsion                 23    24    28    34          62.90435
  191 Torsion                 23    24    28    35         -57.70011
  192 Torsion                 23    24    32    39         173.05770
  193 Torsion                 23    24    32    40          53.88598
  194 Torsion                 23    24    32    41         -67.44829
  195 Torsion                 24    23    30    25        -178.48151
  196 Torsion                 24    23    30    26          62.28220
  197 Torsion                 24    23    30    29         -59.13254
  198 Torsion                 25    30    23    31         -58.01937
  199 Torsion                 26    30    23    31        -177.25567
  200 Torsion                 27    24    23    30         -61.35920
  201 Torsion                 27    24    23    31         177.25018
  202 Torsion                 27    24    28    33          61.14951
  203 Torsion                 27    24    28    34         -58.88633
  204 Torsion                 27    24    28    35        -179.49079
  205 Torsion                 27    24    32    39         -64.62224
  206 Torsion                 27    24    32    40         176.20605
  207 Torsion                 27    24    32    41          54.87177
  208 Torsion                 28    24    23    30         178.16827
  209 Torsion                 28    24    23    31          56.77765
  210 Torsion                 28    24    27    36        -176.04099
  211 Torsion                 28    24    27    37          62.83305
  212 Torsion                 28    24    27    38         -56.65223
  213 Torsion                 28    24    32    39          54.75122
  214 Torsion                 28    24    32    40         -64.42050
  215 Torsion                 28    24    32    41         174.24523
  216 Torsion                 29    30    23    31          61.32960
  217 Torsion                 30    23    24    32          59.95314
  218 Torsion                 31    23    24    32         -61.43749
  219 Torsion                 32    24    27    36         -57.09980
  220 Torsion                 32    24    27    37        -178.22577
  221 Torsion                 32    24    27    38          62.28896
  222 Torsion                 32    24    28    33         -58.52583
  223 Torsion                 32    24    28    34        -178.56166
  224 Torsion                 32    24    28    35          60.83388
 
 
            XYZ format geometry
            -------------------
    41
 geometry
 O                    -0.50216668     0.85537211    -0.12834916
 P                    -0.63064458    -0.32262092     0.97996985
 O                     0.81731041    -1.07428424     0.93530794
 O                    -1.35852625    -1.46521994     0.06116893
 C                     0.91464622    -2.08240142    -0.10218592
 C                    -0.54003015    -2.63146921    -0.18307282
 C                     1.37877018    -1.41794955    -1.38943746
 C                     1.93645133    -3.10318597     0.35292889
 C                    -0.85332417    -3.64722040     0.90495537
 C                    -0.91535686    -3.18562729    -1.54186113
 H                     1.57599348    -2.16510174    -2.15916846
 H                     0.64489947    -0.70635141    -1.76420937
 H                     2.30697768    -0.88070084    -1.19121678
 H                     1.71188744    -3.48025475     1.34896416
 H                     1.96663009    -3.94444128    -0.34221403
 H                     2.92657159    -2.64638347     0.37160271
 H                    -0.34207195    -4.59292309     0.72299894
 H                    -0.56491609    -3.27844384     1.89026687
 H                    -1.92744661    -3.83492259     0.90968779
 H                    -0.26399523    -4.02202605    -1.80285109
 H                    -1.94176217    -3.55327708    -1.51658532
 H                    -0.83963082    -2.42687038    -2.31834208
 C                    -0.81161689     2.21103554     0.23479712
 C                     0.42840678     3.09664450     0.00367522
 H                    -2.87631653     1.93572748    -0.26216086
 H                    -1.90303754     2.55280710    -1.59921943
 C                     0.86121657     3.07873324    -1.46025626
 C                     1.57155175     2.57622489     0.87390018
 H                    -2.37016686     3.62554514    -0.26749123
 C                    -2.06065462     2.61199595    -0.52157872
 H                    -1.02815055     2.23700245     1.31139438
 C                     0.10575282     4.52859834     0.42940749
 H                     2.44789781     3.21933446     0.76737454
 H                     1.85788219     1.56240111     0.59192528
 H                     1.28861102     2.56824952     1.93042760
 H                     0.09981115     3.50794677    -2.11433398
 H                     1.06666725     2.06045355    -1.79421485
 H                     1.77310873     3.66729554    -1.58526188
 H                     1.00991617     5.13972713     0.38740363
 H                    -0.27136068     4.56266354     1.45519830
 H                    -0.63614787     4.99264128    -0.22217622
 
 ==============================================================================
                                internuclear distances
 ------------------------------------------------------------------------------
       center one      |      center two      | atomic units |  angstroms
 ------------------------------------------------------------------------------
    2 P                |   1 O                |     3.06610  |     1.62251
    3 O                |   2 P                |     3.08412  |     1.63204
    4 O                |   2 P                |     3.09335  |     1.63693
    5 C                |   3 O                |     2.73989  |     1.44989
    6 C                |   4 O                |     2.73177  |     1.44559
    6 C                |   5 C                |     2.94221  |     1.55695
    7 C                |   5 C                |     2.87457  |     1.52116
    8 C                |   5 C                |     2.86168  |     1.51434
    9 C                |   6 C                |     2.87444  |     1.52109
   10 C                |   6 C                |     2.86234  |     1.51468
   11 H                |   7 C                |     2.06112  |     1.09070
   12 H                |   7 C                |     2.05745  |     1.08876
   13 H                |   7 C                |     2.06101  |     1.09064
   14 H                |   8 C                |     2.05685  |     1.08844
   15 H                |   8 C                |     2.06305  |     1.09172
   16 H                |   8 C                |     2.06089  |     1.09058
   17 H                |   9 C                |     2.06044  |     1.09034
   18 H                |   9 C                |     2.06146  |     1.09088
   19 H                |   9 C                |     2.06058  |     1.09041
   20 H                |  10 C                |     2.06314  |     1.09176
   21 H                |  10 C                |     2.06085  |     1.09056
   22 H                |  10 C                |     2.05656  |     1.08829
   23 C                |   1 O                |     2.71586  |     1.43717
   24 C                |  23 C                |     2.91250  |     1.54123
   27 C                |  24 C                |     2.88500  |     1.52668
   28 C                |  24 C                |     2.88758  |     1.52804
   30 C                |  23 C                |     2.86153  |     1.51426
   30 C                |  25 H                |     2.06140  |     1.09084
   30 C                |  26 H                |     2.06115  |     1.09071
   30 C                |  29 H                |     2.05940  |     1.08979
   31 H                |  23 C                |     2.07580  |     1.09846
   32 C                |  24 C                |     2.88816  |     1.52835
   33 H                |  28 C                |     2.06398  |     1.09221
   34 H                |  28 C                |     2.06087  |     1.09057
   35 H                |  28 C                |     2.06696  |     1.09379
   36 H                |  27 C                |     2.06299  |     1.09169
   37 H                |  27 C                |     2.06199  |     1.09116
   38 H                |  27 C                |     2.06455  |     1.09251
   39 H                |  32 C                |     2.06383  |     1.09213
   40 H                |  32 C                |     2.06631  |     1.09344
   41 H                |  32 C                |     2.06172  |     1.09102
 ------------------------------------------------------------------------------
                         number of included internuclear distances:         41
 ==============================================================================



 ==============================================================================
                                 internuclear angles
 ------------------------------------------------------------------------------
        center 1       |       center 2       |       center 3       |  degrees
 ------------------------------------------------------------------------------
    2 P                |   1 O                |  23 C                |   119.68
    1 O                |   2 P                |   3 O                |   104.21
    1 O                |   2 P                |   4 O                |    99.12
    3 O                |   2 P                |   4 O                |    93.31
    2 P                |   3 O                |   5 C                |   113.54
    2 P                |   4 O                |   6 C                |   113.97
    3 O                |   5 C                |   6 C                |   102.69
    3 O                |   5 C                |   7 C                |   108.80
    3 O                |   5 C                |   8 C                |   107.39
    6 C                |   5 C                |   7 C                |   113.28
    6 C                |   5 C                |   8 C                |   114.10
    7 C                |   5 C                |   8 C                |   110.05
    4 O                |   6 C                |   5 C                |   103.63
    4 O                |   6 C                |   9 C                |   107.53
    4 O                |   6 C                |  10 C                |   107.84
    5 C                |   6 C                |   9 C                |   113.00
    5 C                |   6 C                |  10 C                |   114.03
    9 C                |   6 C                |  10 C                |   110.26
    5 C                |   7 C                |  11 H                |   110.68
    5 C                |   7 C                |  12 H                |   111.78
    5 C                |   7 C                |  13 H                |   108.73
   11 H                |   7 C                |  12 H                |   109.07
   11 H                |   7 C                |  13 H                |   108.17
   12 H                |   7 C                |  13 H                |   108.32
    5 C                |   8 C                |  14 H                |   111.67
    5 C                |   8 C                |  15 H                |   110.29
    5 C                |   8 C                |  16 H                |   109.60
   14 H                |   8 C                |  15 H                |   108.75
   14 H                |   8 C                |  16 H                |   108.47
   15 H                |   8 C                |  16 H                |   107.97
    6 C                |   9 C                |  17 H                |   111.30
    6 C                |   9 C                |  18 H                |   111.46
    6 C                |   9 C                |  19 H                |   108.72
   17 H                |   9 C                |  18 H                |   108.66
   17 H                |   9 C                |  19 H                |   108.26
   18 H                |   9 C                |  19 H                |   108.34
    6 C                |  10 C                |  20 H                |   110.30
    6 C                |  10 C                |  21 H                |   109.62
    6 C                |  10 C                |  22 H                |   111.58
   20 H                |  10 C                |  21 H                |   107.99
   20 H                |  10 C                |  22 H                |   108.79
   21 H                |  10 C                |  22 H                |   108.49
    1 O                |  23 C                |  24 C                |   109.32
    1 O                |  23 C                |  30 C                |   107.53
    1 O                |  23 C                |  31 H                |   108.20
   24 C                |  23 C                |  30 C                |   115.89
   24 C                |  23 C                |  31 H                |   106.98
   30 C                |  23 C                |  31 H                |   108.71
   23 C                |  24 C                |  27 C                |   111.42
   23 C                |  24 C                |  28 C                |   108.71
   23 C                |  24 C                |  32 C                |   109.07
   27 C                |  24 C                |  28 C                |   109.27
   27 C                |  24 C                |  32 C                |   109.75
   28 C                |  24 C                |  32 C                |   108.57
   24 C                |  27 C                |  36 H                |   111.85
   24 C                |  27 C                |  37 H                |   110.97
   24 C                |  27 C                |  38 H                |   109.88
   36 H                |  27 C                |  37 H                |   108.35
   36 H                |  27 C                |  38 H                |   107.57
   37 H                |  27 C                |  38 H                |   108.09
   24 C                |  28 C                |  33 H                |   110.13
   24 C                |  28 C                |  34 H                |   111.46
   24 C                |  28 C                |  35 H                |   111.04
   33 H                |  28 C                |  34 H                |   108.15
   33 H                |  28 C                |  35 H                |   107.82
   34 H                |  28 C                |  35 H                |   108.11
   23 C                |  30 C                |  25 H                |   109.50
   23 C                |  30 C                |  26 H                |   111.10
   23 C                |  30 C                |  29 H                |   111.35
   25 H                |  30 C                |  26 H                |   108.02
   25 H                |  30 C                |  29 H                |   107.98
   26 H                |  30 C                |  29 H                |   108.78
   24 C                |  32 C                |  39 H                |   109.80
   24 C                |  32 C                |  40 H                |   111.30
   24 C                |  32 C                |  41 H                |   112.07
   39 H                |  32 C                |  40 H                |   107.71
   39 H                |  32 C                |  41 H                |   107.58
   40 H                |  32 C                |  41 H                |   108.21
 ------------------------------------------------------------------------------
                            number of included internuclear angles:         78
 ==============================================================================





 Summary of "ao basis" -> "" (cartesian)
 ------------------------------------------------------------------------------
       Tag                 Description            Shells   Functions and Types
 ---------------- ------------------------------  ------  ---------------------
 *                      6-311++G(2d,2p)               on all atoms 


 
 
                           NWChem Geometry Optimization
                           ----------------------------
 
 
 
 
                                       der7
 
 
  no constraints, skipping   0.000000000000000E+000
 maximum gradient threshold         (gmax) =   0.000015
 rms gradient threshold             (grms) =   0.000010
 maximum cartesian step threshold   (xmax) =   0.000060
 rms cartesian step threshold       (xrms) =   0.000040
 fixed trust radius                (trust) =   0.300000
 maximum step size to saddle      (sadstp) =   0.100000
 energy precision                  (eprec) =   5.0D-06
 maximum number of steps          (nptopt) = 9999
 initial hessian option           (inhess) =    0
 line search option               (linopt) =    1
 hessian update option            (modupd) =    1
 saddle point option              (modsad) =    0
 initial eigen-mode to follow     (moddir) =    0
 initial variable to follow       (vardir) =    0
 follow first negative mode     (firstneg) =    T
 apply conjugacy                    (opcg) =    F
 source of zmatrix                         =   autoz   


          -------------------
          Energy Minimization
          -------------------

 
 Names of Z-matrix variables 
    1              2              3              4              5         
    6              7              8              9             10         
   11             12             13             14             15         
   16             17             18             19             20         
   21             22             23             24             25         
   26             27             28             29             30         
   31             32             33             34             35         
   36             37             38             39             40         
   41             42             43             44             45         
   46             47             48             49             50         
   51             52             53             54             55         
   56             57             58             59             60         
   61             62             63             64             65         
   66             67             68             69             70         
   71             72             73             74             75         
   76             77             78             79             80         
   81             82             83             84             85         
   86             87             88             89             90         
   91             92             93             94             95         
   96             97             98             99            100         
  101            102            103            104            105         
  106            107            108            109            110         
  111            112            113            114            115         
  116            117            118            119            120         
  121            122            123            124            125         
  126            127            128            129            130         
  131            132            133            134            135         
  136            137            138            139            140         
  141            142            143            144            145         
  146            147            148            149            150         
  151            152            153            154            155         
  156            157            158            159            160         
  161            162            163            164            165         
  166            167            168            169            170         
  171            172            173            174            175         
  176            177            178            179            180         
  181            182            183            184            185         
  186            187            188            189            190         
  191            192            193            194            195         
  196            197            198            199            200         
  201            202            203            204            205         
  206            207            208            209            210         
  211            212            213            214            215         
  216            217            218            219            220         
  221            222            223            224         
 
 Variables with the same non-blank name are constrained to be equal
 
 
 Using diagonal initial Hessian 
 Scaling for Hessian diagonals: bonds = 1.00  angles = 0.25  torsions = 0.10

          --------
          Step   0
          --------
 
                                 NWChem DFT Module
                                 -----------------
 
 
                                       der7
 
 
                      Basis "ao basis" -> "ao basis" (cartesian)
                      -----
  O (Oxygen)
  ----------
            Exponent  Coefficients 
       -------------- ---------------------------------------------------------
  1 S  8.58850000E+03  0.001895
  1 S  1.29723000E+03  0.014386
  1 S  2.99296000E+02  0.070732
  1 S  8.73771000E+01  0.240001
  1 S  2.56789000E+01  0.594797
  1 S  3.74004000E+00  0.280802
 
  2 S  4.21175000E+01  0.113889
  2 S  9.62837000E+00  0.920811
  2 S  2.85332000E+00 -0.003274
 
  3 P  4.21175000E+01  0.036511
  3 P  9.62837000E+00  0.237153
  3 P  2.85332000E+00  0.819702
 
  4 S  9.05661000E-01  1.000000
 
  5 P  9.05661000E-01  1.000000
 
  6 S  2.55611000E-01  1.000000
 
  7 P  2.55611000E-01  1.000000
 
  8 S  8.45000000E-02  1.000000
 
  9 P  8.45000000E-02  1.000000
 
 10 D  2.58400000E+00  1.000000
 
 11 D  6.46000000E-01  1.000000
 
  P (Phosphorous)
  ---------------
            Exponent  Coefficients 
       -------------- ---------------------------------------------------------
  1 S  7.74924000E+04  0.000781
  1 S  1.16058000E+04  0.006068
  1 S  2.64596000E+03  0.031160
  1 S  7.54976000E+02  0.123431
  1 S  2.48755000E+02  0.378209
  1 S  9.11565000E+01  0.563262
 
  2 S  9.11565000E+01  0.160255
  2 S  3.62257000E+01  0.627647
  2 S  1.52113000E+01  0.263849
 
  3 S  4.79417000E+00  1.000000
 
  4 S  1.80793000E+00  1.000000
 
  5 S  3.56816000E-01  1.000000
 
  6 S  1.14783000E-01  1.000000
 
  7 P  3.84843000E+02  0.009206
  7 P  9.05521000E+01  0.069874
  7 P  2.91339000E+01  0.292470
  7 P  1.08862000E+01  0.728103
 
  8 P  4.35259000E+00  0.628349
  8 P  1.77706000E+00  0.428044
 
  9 P  6.97005000E-01  1.000000
 
 10 P  2.53532000E-01  1.000000
 
 11 P  6.84930000E-02  1.000000
 
 12 S  3.48000000E-02  1.000000
 
 13 P  3.48000000E-02  1.000000
 
 14 D  1.10000000E+00  1.000000
 
 15 D  2.75000000E-01  1.000000
 
  C (Carbon)
  ----------
            Exponent  Coefficients 
       -------------- ---------------------------------------------------------
  1 S  4.56324000E+03  0.001967
  1 S  6.82024000E+02  0.015231
  1 S  1.54973000E+02  0.076127
  1 S  4.44553000E+01  0.260801
  1 S  1.30290000E+01  0.616462
  1 S  1.82773000E+00  0.221006
 
  2 S  2.09642000E+01  0.114660
  2 S  4.80331000E+00  0.919999
  2 S  1.45933000E+00 -0.003031
 
  3 P  2.09642000E+01  0.040249
  3 P  4.80331000E+00  0.237594
  3 P  1.45933000E+00  0.815854
 
  4 S  4.83456000E-01  1.000000
 
  5 P  4.83456000E-01  1.000000
 
  6 S  1.45585000E-01  1.000000
 
  7 P  1.45585000E-01  1.000000
 
  8 S  4.38000000E-02  1.000000
 
  9 P  4.38000000E-02  1.000000
 
 10 D  1.25200000E+00  1.000000
 
 11 D  3.13000000E-01  1.000000
 
  H (Hydrogen)
  ------------
            Exponent  Coefficients 
       -------------- ---------------------------------------------------------
  1 S  3.38650000E+01  0.025494
  1 S  5.09479000E+00  0.190373
  1 S  1.15879000E+00  0.852161
 
  2 S  3.25840000E-01  1.000000
 
  3 S  1.02741000E-01  1.000000
 
  4 S  3.60000000E-02  1.000000
 
  5 P  1.50000000E+00  1.000000
 
  6 P  3.75000000E-01  1.000000
 


 Summary of "ao basis" -> "ao basis" (cartesian)
 ------------------------------------------------------------------------------
       Tag                 Description            Shells   Functions and Types
 ---------------- ------------------------------  ------  ---------------------
 O                      6-311++G(2d,2p)             11       29   5s4p2d
 P                      6-311++G(2d,2p)             15       37   7s6p2d
 C                      6-311++G(2d,2p)             11       29   5s4p2d
 H                      6-311++G(2d,2p)              6       10   4s2p


 
 
 solvent parameters
 solvname_short: chcl3   
 solvname_long:  chloroform                         
 dielec:        4.7113
 dielecinf:     2.0906

          ---------------
          -cosmo- solvent
          ---------------
 Cosmo: York-Karplus, doi: 10.1021/jp992097l
 dielectric constant -eps-     =   4.71
 screen = (eps-1)/(eps    )    =   0.78774
 surface charge correction     = lagrangian
 -lineq- algorithm             =   0
 -bem- low  level              =   2
 -bem- from -octahedral-
 gaussian surface charge width =   0.98000
 degree of switching           =   1.00000
 switching function tolerance  =   0.00010
 atomic radii = 
 --------------
    1  8.000  1.720
    2 15.000  2.106
    3  8.000  1.720
    4  8.000  1.720
    5  6.000  2.000
    6  6.000  2.000
    7  6.000  2.000
    8  6.000  2.000
    9  6.000  2.000
   10  6.000  2.000
   11  1.000  1.300
   12  1.000  1.300
   13  1.000  1.300
   14  1.000  1.300
   15  1.000  1.300
   16  1.000  1.300
   17  1.000  1.300
   18  1.000  1.300
   19  1.000  1.300
   20  1.000  1.300
   21  1.000  1.300
   22  1.000  1.300
   23  6.000  2.000
   24  6.000  2.000
   25  1.000  1.300
   26  1.000  1.300
   27  6.000  2.000
   28  6.000  2.000
   29  1.000  1.300
   30  6.000  2.000
   31  1.000  1.300
   32  6.000  2.000
   33  1.000  1.300
   34  1.000  1.300
   35  1.000  1.300
   36  1.000  1.300
   37  1.000  1.300
   38  1.000  1.300
   39  1.000  1.300
   40  1.000  1.300
   41  1.000  1.300

 solvent accessible surface
 --------------------------

 ---------- ATOMIC COORDINATES (A.U.) ------------ VDWR(ANG.) --
     1   -0.94895743    1.61641891   -0.24254474     1.720
     2   -1.19174545   -0.60966513    1.85187450     2.106
     3    1.54449272   -2.03010285    1.76747572     1.720
     4   -2.56724235   -2.76886420    0.11559252     1.720
     5    1.72843073   -3.93516809   -0.19310338     2.000
     6   -1.02050901   -4.97275575   -0.34595746     2.000
     7    2.60549783   -2.67953612   -2.62565609     2.000
     8    3.65936240   -5.86417118    0.66693890     2.000
     9   -1.61254886   -6.89224718    1.71011768     2.000
    10   -1.72977365   -6.01996268   -2.91369505     2.000
    11    2.97819583   -4.09144902   -4.08023676     1.300
    12    1.21868329   -1.33481062   -3.33387230     1.300
    13    4.35955568   -1.66428327   -2.25107331     1.300
    14    3.23499818   -6.57672786    2.54917264     1.300
    15    3.71639198   -7.45391320   -0.64669074     1.300
    16    5.53041840   -5.00093962    0.70222730     1.300
    17   -0.64642225   -8.67936613    1.36626988     1.300
    18   -1.06753661   -6.19536053    3.57208643     1.300
    19   -3.64234596   -7.24695288    1.71906066     1.300
    20   -0.49887865   -7.60052715   -3.40689456     1.300
    21   -3.66939844   -6.71472004   -2.86593069     1.300
    22   -1.58667219   -4.58612003   -4.38103128     1.300
    23   -1.53373352    4.17825131    0.44370222     2.000
    24    0.80957142    5.85180960    0.00694515     2.000
    25   -5.43545010    3.65799453   -0.49541219     1.300
    26   -3.59621950    4.82410592   -3.02208653     1.300
    27    1.62746333    5.81796221   -2.75948420     2.000
    28    2.96980218    4.86835913    1.65143189     2.000
    29   -4.47896592    6.85128688   -0.50548514     1.300
    30   -3.89407259    4.93595664   -0.98564086     2.000
    31   -1.94292281    4.22732167    2.47817604     1.300
    32    0.19984386    8.55780998    0.81146250     2.000
    33    4.62585610    6.08366000    1.45012761     1.300
    34    3.51088825    2.95250998    1.11857659     1.300
    35    2.43512174    4.85328787    3.64797921     1.300
    36    0.18861572    6.62905818   -3.99551188     1.300
    37    2.01570882    3.89369261   -3.39057443     1.300
    38    3.35068964    6.93018370   -2.99571058     1.300
    39    1.90846484    9.71267593    0.73208670     1.300
    40   -0.51279732    8.62218387    2.74992605     1.300
    41   -1.20214517    9.43472398   -0.41985218     1.300
 number of segments per atom =         32
 number of   points per atom =         32
 atom (   nspa,  nppa )
 ----------------------
    1 (      9,     0 )       0
    2 (     11,     0 )       0
    3 (     12,     0 )       0
    4 (     10,     0 )       0
    5 (      0,     0 )       0
    6 (      0,     0 )       0
    7 (     15,     0 )       0
    8 (     17,     0 )       0
    9 (     14,     0 )       0
   10 (     17,     0 )       0
   11 (     14,     0 )       0
   12 (     14,     0 )       0
   13 (     15,     0 )       0
   14 (     12,     0 )       0
   15 (     13,     0 )       0
   16 (     15,     0 )       0
   17 (     13,     0 )       0
   18 (     13,     0 )       0
   19 (     15,     0 )       0
   20 (     15,     0 )       0
   21 (     14,     0 )       0
   22 (     11,     0 )       0
   23 (      5,     0 )       0
   24 (      2,     0 )       0
   25 (     15,     0 )       0
   26 (     15,     0 )       0
   27 (     15,     0 )       0
   28 (     16,     0 )       0
   29 (     12,     0 )       0
   30 (     15,     0 )       0
   31 (     12,     0 )       0
   32 (     13,     0 )       0
   33 (     14,     0 )       0
   34 (     13,     0 )       0
   35 (     14,     0 )       0
   36 (     14,     0 )       0
   37 (     13,     0 )       0
   38 (     15,     0 )       0
   39 (     15,     0 )       0
   40 (     14,     0 )       0
   41 (     15,     0 )       0
 number of -cosmo- surface points =      516
 molecular surface =    294.313 angstrom**2
 molecular volume  =    160.408 angstrom**3
 G(cav/disp)       =      2.332 kcal/mol
 ...... end of -cosmo- initialization ......


  Caching 1-el integrals 
 
 WARNING : Found     3 linear dependencies 
 S eigenvalue threshold:     1.00000E-05
 Smallest S eigenvalue :     2.21384E-06
 Largest  S eigenvalue :     4.65232E-06
 
   Time after variat. SCF:    274.0
   Time prior to 1st pass:    274.0
  Resetting Diis


         Total DFT energy =    -1038.728909893980
      One electron energy =    -4325.928119623201
           Coulomb energy =     1948.564140697844
    Exchange-Corr. energy =     -122.864165301494
 Nuclear repulsion energy =     1460.527319925389

             COSMO energy =        0.971914407482

 Numeric. integr. density =      136.000030700801

     Total iterative time =  11217.8s


                                   COSMO solvation results
                                   -----------------------

                 gas phase energy =     -1038.720775185760
                 sol phase energy =     -1038.728909893980
 (electrostatic) solvation energy =         0.008134708219 (    5.10 kcal/mol)


                         DFT ENERGY GRADIENTS

    atom               coordinates                        gradient
                 x          y          z           x          y          z
   1 O      -0.948957   1.616419  -0.242545   -0.000629  -0.001236   0.006166
   2 P      -1.191745  -0.609665   1.851875    0.001306  -0.000233  -0.006807
   3 O       1.544493  -2.030103   1.767476   -0.004520   0.000214  -0.001740
   4 O      -2.567242  -2.768864   0.115593    0.003953   0.001243   0.003075
   5 C       1.728431  -3.935168  -0.193103    0.001130   0.001355   0.001225
   6 C      -1.020509  -4.972756  -0.345957   -0.001947   0.001299  -0.000165
   7 C       2.605498  -2.679536  -2.625656   -0.000181   0.000020   0.000109
   8 C       3.659362  -5.864171   0.666939   -0.000189   0.000227  -0.000131
   9 C      -1.612549  -6.892247   1.710118    0.000236   0.000055  -0.000332
  10 C      -1.729774  -6.019963  -2.913695    0.000340  -0.000062   0.000260
  11 H       2.978196  -4.091449  -4.080237    0.000095  -0.000030  -0.000059
  12 H       1.218683  -1.334811  -3.333872   -0.000017   0.000256   0.000335
  13 H       4.359556  -1.664283  -2.251073   -0.000166   0.000032   0.000019
  14 H       3.234998  -6.576728   2.549173    0.000160  -0.000115  -0.000080
  15 H       3.716392  -7.453913  -0.646691    0.000177  -0.000273   0.000032
  16 H       5.530418  -5.000940   0.702227   -0.000035  -0.000110   0.000033
  17 H      -0.646422  -8.679366   1.366270   -0.000099  -0.000096   0.000064
  18 H      -1.067537  -6.195361   3.572086   -0.000176  -0.000101  -0.000013
  19 H      -3.642346  -7.246953   1.719061    0.000087  -0.000013   0.000057
  20 H      -0.498879  -7.600527  -3.406895   -0.000277  -0.000216  -0.000335
  21 H      -3.669398  -6.714720  -2.865931    0.000136  -0.000111  -0.000044
  22 H      -1.586672  -4.586120  -4.381031    0.000059  -0.000033   0.000035
  23 C      -1.533734   4.178251   0.443702    0.000791  -0.002336  -0.002361
  24 C       0.809571   5.851810   0.006945    0.000003   0.000349  -0.000097
  25 H      -5.435450   3.657995  -0.495412    0.000054   0.000099  -0.000115
  26 H      -3.596220   4.824106  -3.022087    0.000164  -0.000212   0.000086
  27 C       1.627463   5.817962  -2.759484    0.000004  -0.000099   0.000406
  28 C       2.969802   4.868359   1.651432   -0.000230   0.000141  -0.000551
  29 H      -4.478966   6.851287  -0.505485   -0.000224   0.000003   0.000121
  30 C      -3.894073   4.935957  -0.985641    0.000291   0.000293   0.000201
  31 H      -1.942923   4.227322   2.478176   -0.000156  -0.000056   0.000328
  32 C       0.199844   8.557810   0.811462    0.000288  -0.000684  -0.000198
  33 H       4.625856   6.083660   1.450128   -0.000010   0.000029   0.000117
  34 H       3.510888   2.952510   1.118577   -0.000157  -0.000069  -0.000040
  35 H       2.435122   4.853288   3.647979    0.000034   0.000094   0.000106
  36 H       0.188616   6.629058  -3.995512    0.000015   0.000015   0.000048
  37 H       2.015709   3.893693  -3.390574   -0.000331  -0.000045   0.000217
  38 H       3.350690   6.930184  -2.995711   -0.000019   0.000136   0.000034
  39 H       1.908465   9.712676   0.732087   -0.000073   0.000146   0.000007
  40 H      -0.512797   8.622184   2.749926   -0.000038   0.000034  -0.000011
  41 H      -1.202145   9.434724  -0.419852    0.000149   0.000087  -0.000001
 
  no constraints, skipping   0.000000000000000E+000

@ Step       Energy      Delta E   Gmax     Grms     Xrms     Xmax   Walltime
@ ---- ---------------- -------- -------- -------- -------- -------- --------
@    0   -1038.72890989  0.0D+00  0.00535  0.00058  0.00000  0.00000  12265.0
                                                                    

  no constraints, skipping   0.000000000000000E+000
  no constraints, skipping   0.000000000000000E+000
  no constraints, skipping   0.000000000000000E+000
  no constraints, skipping   0.000000000000000E+000
  no constraints, skipping   0.000000000000000E+000
  no constraints, skipping   0.000000000000000E+000
  no constraints, skipping   0.000000000000000E+000
  no constraints, skipping   0.000000000000000E+000
 
                                 NWChem DFT Module
                                 -----------------
 
 
                                       der7
 
 
 
 
 solvent parameters
 solvname_short: chcl3   
 solvname_long:  chloroform                         
 dielec:        4.7113
 dielecinf:     2.0906

          ---------------
          -cosmo- solvent
          ---------------
 Cosmo: York-Karplus, doi: 10.1021/jp992097l
 dielectric constant -eps-     =   4.71
 screen = (eps-1)/(eps    )    =   0.78774
 surface charge correction     = lagrangian
 -lineq- algorithm             =   0
 -bem- low  level              =   2
 -bem- from -octahedral-
 gaussian surface charge width =   0.98000
 degree of switching           =   1.00000
 switching function tolerance  =   0.00010
 atomic radii = 
 --------------
    1  8.000  1.720
    2 15.000  2.106
    3  8.000  1.720
    4  8.000  1.720
    5  6.000  2.000
    6  6.000  2.000
    7  6.000  2.000
    8  6.000  2.000
    9  6.000  2.000
   10  6.000  2.000
   11  1.000  1.300
   12  1.000  1.300
   13  1.000  1.300
   14  1.000  1.300
   15  1.000  1.300
   16  1.000  1.300
   17  1.000  1.300
   18  1.000  1.300
   19  1.000  1.300
   20  1.000  1.300
   21  1.000  1.300
   22  1.000  1.300
   23  6.000  2.000
   24  6.000  2.000
   25  1.000  1.300
   26  1.000  1.300
   27  6.000  2.000
   28  6.000  2.000
   29  1.000  1.300
   30  6.000  2.000
   31  1.000  1.300
   32  6.000  2.000
   33  1.000  1.300
   34  1.000  1.300
   35  1.000  1.300
   36  1.000  1.300
   37  1.000  1.300
   38  1.000  1.300
   39  1.000  1.300
   40  1.000  1.300
   41  1.000  1.300

 solvent accessible surface
 --------------------------

 ---------- ATOMIC COORDINATES (A.U.) ------------ VDWR(ANG.) --
     1   -0.93083380    1.62560960   -0.29243120     1.720
     2   -1.17039534   -0.59923069    1.82027880     2.106
     3    1.56830547   -2.03329387    1.74519942     1.720
     4   -2.56452944   -2.76696802    0.09373943     1.720
     5    1.73446680   -3.95944107   -0.20384336     2.000
     6   -1.02010710   -4.98254609   -0.34637544     2.000
     7    2.61867294   -2.73684719   -2.65158064     2.000
     8    3.65372799   -5.89079286    0.67494228     2.000
     9   -1.62030999   -6.87839820    1.72930590     2.000
    10   -1.73269703   -6.04815301   -2.90523227     2.000
    11    2.97986265   -4.16887538   -4.08896370     1.300
    12    1.24207735   -1.39154562   -3.37786548     1.300
    13    4.38096520   -1.73034358   -2.29021417     1.300
    14    3.22418896   -6.58015001    2.56483300     1.300
    15    3.69782093   -7.49249732   -0.62368930     1.300
    16    5.53012347   -5.03834372    0.70010119     1.300
    17   -0.66057576   -8.67206789    1.40247974     1.300
    18   -1.07097980   -6.16364917    3.58346465     1.300
    19   -3.65183062   -7.22450420    1.74155901     1.300
    20   -0.50466122   -7.63654489   -3.37912204     1.300
    21   -3.67549945   -6.73435729   -2.85279851     1.300
    22   -1.58268020   -4.62811414   -4.38547394     1.300
    23   -1.52626255    4.18399791    0.42517597     2.000
    24    0.80801556    5.87605663    0.00851013     2.000
    25   -5.42670770    3.64969224   -0.51321262     1.300
    26   -3.60169651    4.85628758   -3.03184489     1.300
    27    1.63036744    5.88385144   -2.75885762     2.000
    28    2.97467413    4.88573238    1.64306967     2.000
    29   -4.48770783    6.84915579   -0.49095243     1.300
    30   -3.89402601    4.94251121   -0.99320056     2.000
    31   -1.93193038    4.20876166    2.45975259     1.300
    32    0.17758260    8.56821561    0.84788103     2.000
    33    4.62230117    6.11492836    1.45776934     1.300
    34    3.53078333    2.98076705    1.08754777     1.300
    35    2.43822892    4.84157313    3.63847329     1.300
    36    0.18794397    6.70154434   -3.98646042     1.300
    37    2.03513795    3.97209981   -3.41776387     1.300
    38    3.34628294    7.01062470   -2.97744976     1.300
    39    1.87875037    9.73488723    0.78464735     1.300
    40   -0.53666680    8.60181989    2.78655698     1.300
    41   -1.23046745    9.45015703   -0.37316947     1.300
 number of segments per atom =         32
 number of   points per atom =         32
 atom (   nspa,  nppa )
 ----------------------
    1 (      9,     0 )       0
    2 (     11,     0 )       0
    3 (     13,     0 )       0
    4 (     10,     0 )       0
    5 (      0,     0 )       0
    6 (      0,     0 )       0
    7 (     15,     0 )       0
    8 (     17,     0 )       0
    9 (     14,     0 )       0
   10 (     17,     0 )       0
   11 (     14,     0 )       0
   12 (     14,     0 )       0
   13 (     15,     0 )       0
   14 (     12,     0 )       0
   15 (     13,     0 )       0
   16 (     15,     0 )       0
   17 (     13,     0 )       0
   18 (     13,     0 )       0
   19 (     15,     0 )       0
   20 (     15,     0 )       0
   21 (     14,     0 )       0
   22 (     11,     0 )       0
   23 (      5,     0 )       0
   24 (      2,     0 )       0
   25 (     15,     0 )       0
   26 (     15,     0 )       0
   27 (     15,     0 )       0
   28 (     16,     0 )       0
   29 (     13,     0 )       0
   30 (     15,     0 )       0
   31 (     11,     0 )       0
   32 (     14,     0 )       0
   33 (     14,     0 )       0
   34 (     12,     0 )       0
   35 (     14,     0 )       0
   36 (     14,     0 )       0
   37 (     13,     0 )       0
   38 (     15,     0 )       0
   39 (     15,     0 )       0
   40 (     14,     0 )       0
   41 (     15,     0 )       0
 number of -cosmo- surface points =      517
 molecular surface =    295.517 angstrom**2
 molecular volume  =    161.099 angstrom**3
 G(cav/disp)       =      2.338 kcal/mol
 ...... end of -cosmo- initialization ......


  Caching 1-el integrals 
 
 WARNING : Found     3 linear dependencies 
 S eigenvalue threshold:     1.00000E-05
 Smallest S eigenvalue :     2.25215E-06
 Largest  S eigenvalue :     4.68070E-06
 
   Time after variat. SCF:  12267.0
   Time prior to 1st pass:  12267.0


         Total DFT energy =    -1038.729112902542
      One electron energy =    -4321.602500918737
           Coulomb energy =     1946.392246173811
    Exchange-Corr. energy =     -122.851378596193
 Nuclear repulsion energy =     1458.331926298843

             COSMO energy =        1.000594139734

 Numeric. integr. density =      136.000020487834

     Total iterative time =   4372.5s


                                   COSMO solvation results
                                   -----------------------

                 gas phase energy =     -1038.720852566633
                 sol phase energy =     -1038.729112902542
 (electrostatic) solvation energy =         0.008260335909 (    5.18 kcal/mol)
 Line search: 
     step= 1.00 grad=-3.0D-04 hess= 9.2D-05 energy=  -1038.729113 mode=downhill
 new step= 1.60                   predicted energy=  -1038.729146
  no constraints, skipping   0.000000000000000E+000
  no constraints, skipping   0.000000000000000E+000
  no constraints, skipping   0.000000000000000E+000
  no constraints, skipping   0.000000000000000E+000
  no constraints, skipping   0.000000000000000E+000
  no constraints, skipping   0.000000000000000E+000
  no constraints, skipping   0.000000000000000E+000
  no constraints, skipping   0.000000000000000E+000

          --------
          Step   1
          --------
 
                                 NWChem DFT Module
                                 -----------------
 
 
                                       der7
 
 
 
 
 solvent parameters
 solvname_short: chcl3   
 solvname_long:  chloroform                         
 dielec:        4.7113
 dielecinf:     2.0906

          ---------------
          -cosmo- solvent
          ---------------
 Cosmo: York-Karplus, doi: 10.1021/jp992097l
 dielectric constant -eps-     =   4.71
 screen = (eps-1)/(eps    )    =   0.78774
 surface charge correction     = lagrangian
 -lineq- algorithm             =   0
 -bem- low  level              =   2
 -bem- from -octahedral-
 gaussian surface charge width =   0.98000
 degree of switching           =   1.00000
 switching function tolerance  =   0.00010
 atomic radii = 
 --------------
    1  8.000  1.720
    2 15.000  2.106
    3  8.000  1.720
    4  8.000  1.720
    5  6.000  2.000
    6  6.000  2.000
    7  6.000  2.000
    8  6.000  2.000
    9  6.000  2.000
   10  6.000  2.000
   11  1.000  1.300
   12  1.000  1.300
   13  1.000  1.300
   14  1.000  1.300
   15  1.000  1.300
   16  1.000  1.300
   17  1.000  1.300
   18  1.000  1.300
   19  1.000  1.300
   20  1.000  1.300
   21  1.000  1.300
   22  1.000  1.300
   23  6.000  2.000
   24  6.000  2.000
   25  1.000  1.300
   26  1.000  1.300
   27  6.000  2.000
   28  6.000  2.000
   29  1.000  1.300
   30  6.000  2.000
   31  1.000  1.300
   32  6.000  2.000
   33  1.000  1.300
   34  1.000  1.300
   35  1.000  1.300
   36  1.000  1.300
   37  1.000  1.300
   38  1.000  1.300
   39  1.000  1.300
   40  1.000  1.300
   41  1.000  1.300

 solvent accessible surface
 --------------------------

 ---------- ATOMIC COORDINATES (A.U.) ------------ VDWR(ANG.) --
     1   -0.92003200    1.63118449   -0.32248527     1.720
     2   -1.15760242   -0.59286541    1.80118277     2.106
     3    1.58257121   -2.03502403    1.73174831     1.720
     4   -2.56288787   -2.76567337    0.08053433     1.720
     5    1.73805274   -3.97371552   -0.21025293     2.000
     6   -1.01983569   -4.98813222   -0.34666317     2.000
     7    2.62640798   -2.77103044   -2.66692231     2.000
     8    3.65035295   -5.90630749    0.67979348     2.000
     9   -1.62483398   -6.86970039    1.74066966     2.000
    10   -1.73444239   -6.06476337   -2.90011207     2.000
    11    2.98066436   -4.21497302   -4.09387076     1.300
    12    1.25590802   -1.42557071   -3.40404395     1.300
    13    4.39358025   -1.76984305   -2.31342921     1.300
    14    3.21779549   -6.58169687    2.57415702     1.300
    15    3.68669928   -7.51507497   -0.60978354     1.300
    16    5.52989949   -5.06035308    0.69892984     1.300
    17   -0.66891122   -8.66719209    1.42407896     1.300
    18   -1.07287978   -6.14427573    3.59004514     1.300
    19   -3.65736366   -7.21067172    1.75488057     1.300
    20   -0.50811370   -7.65771926   -3.36239206     1.300
    21   -3.67911838   -6.74585723   -2.84490188     1.300
    22   -1.58034210   -4.65307878   -4.38804126     1.300
    23   -1.52176709    4.18731083    0.41396545     2.000
    24    0.80708918    5.89026130    0.00942936     2.000
    25   -5.42142213    3.64465279   -0.52403848     1.300
    26   -3.60505023    4.87541066   -3.03762083     1.300
    27    1.63195135    5.92304903   -2.75824460     2.000
    28    2.97761205    4.89581248    1.63796457     2.000
    29   -4.49284431    6.84758887   -0.48234458     1.300
    30   -3.89397153    4.94628025   -0.99780778     2.000
    31   -1.92523966    4.19751854    2.44847914     1.300
    32    0.16436974    8.57384375    0.86963365     2.000
    33    4.62017451    6.13316471    1.46233503     1.300
    34    3.54263014    2.99754341    1.06890795     1.300
    35    2.44022233    4.83421987    3.63250900     1.300
    36    0.18737228    6.74469861   -3.98073144     1.300
    37    2.04652329    4.01905298   -3.43374419     1.300
    38    3.34346417    7.05834679   -2.96618913     1.300
    39    1.86106486    9.74741597    0.81613478     1.300
    40   -0.55072005    8.58900431    2.80824773     1.300
    41   -1.24731227    9.45876850   -0.34522142     1.300
 number of segments per atom =         32
 number of   points per atom =         32
 atom (   nspa,  nppa )
 ----------------------
    1 (      9,     0 )       0
    2 (     12,     0 )       0
    3 (     13,     0 )       0
    4 (     10,     0 )       0
    5 (      0,     0 )       0
    6 (      0,     0 )       0
    7 (     16,     0 )       0
    8 (     17,     0 )       0
    9 (     13,     0 )       0
   10 (     17,     0 )       0
   11 (     14,     0 )       0
   12 (     14,     0 )       0
   13 (     15,     0 )       0
   14 (     12,     0 )       0
   15 (     14,     0 )       0
   16 (     15,     0 )       0
   17 (     13,     0 )       0
   18 (     13,     0 )       0
   19 (     15,     0 )       0
   20 (     15,     0 )       0
   21 (     14,     0 )       0
   22 (     11,     0 )       0
   23 (      5,     0 )       0
   24 (      2,     0 )       0
   25 (     15,     0 )       0
   26 (     15,     0 )       0
   27 (     16,     0 )       0
   28 (     15,     0 )       0
   29 (     13,     0 )       0
   30 (     15,     0 )       0
   31 (     11,     0 )       0
   32 (     14,     0 )       0
   33 (     14,     0 )       0
   34 (     13,     0 )       0
   35 (     14,     0 )       0
   36 (     14,     0 )       0
   37 (     13,     0 )       0
   38 (     15,     0 )       0
   39 (     14,     0 )       0
   40 (     14,     0 )       0
   41 (     15,     0 )       0
 number of -cosmo- surface points =      519
 molecular surface =    296.286 angstrom**2
 molecular volume  =    161.547 angstrom**3
 G(cav/disp)       =      2.341 kcal/mol
 ...... end of -cosmo- initialization ......


  Caching 1-el integrals 
 
 WARNING : Found     3 linear dependencies 
 S eigenvalue threshold:     1.00000E-05
 Smallest S eigenvalue :     2.27409E-06
 Largest  S eigenvalue :     4.69719E-06
 
   Time after variat. SCF:  16641.7
   Time prior to 1st pass:  16641.7


         Total DFT energy =    -1038.729149274981
      One electron energy =    -4319.069760028440
           Coulomb energy =     1945.120784002760
    Exchange-Corr. energy =     -122.843860263252
 Nuclear repulsion energy =     1457.046258750196

             COSMO energy =        1.017428263756

 Numeric. integr. density =      136.000013886275

     Total iterative time =   4391.4s


                                   COSMO solvation results
                                   -----------------------

                 gas phase energy =     -1038.720808415101
                 sol phase energy =     -1038.729149274981
 (electrostatic) solvation energy =         0.008340859880 (    5.23 kcal/mol)


                         DFT ENERGY GRADIENTS

    atom               coordinates                        gradient
                 x          y          z           x          y          z
   1 O      -0.920032   1.631184  -0.322485   -0.000237   0.000078   0.001216
   2 P      -1.157602  -0.592865   1.801183    0.000218   0.000723  -0.002455
   3 O       1.582571  -2.035024   1.731748    0.000097  -0.000385   0.001332
   4 O      -2.562888  -2.765673   0.080534   -0.000924  -0.000492   0.001063
   5 C       1.738053  -3.973716  -0.210253    0.001092  -0.000206   0.000364
   6 C      -1.019836  -4.988132  -0.346663   -0.000625   0.000036  -0.000704
   7 C       2.626408  -2.771030  -2.666922   -0.000408  -0.000450  -0.000742
   8 C       3.650353  -5.906307   0.679793   -0.000044   0.000165  -0.000206
   9 C      -1.624834  -6.869700   1.740670    0.000374  -0.000052   0.000076
  10 C      -1.734442  -6.064763  -2.900112    0.000391   0.000169  -0.000119
  11 H       2.980664  -4.214973  -4.093871    0.000027   0.000063  -0.000053
  12 H       1.255908  -1.425571  -3.404044    0.000189   0.000097   0.000159
  13 H       4.393580  -1.769843  -2.313429    0.000022   0.000104   0.000062
  14 H       3.217795  -6.581697   2.574157   -0.000041  -0.000050   0.000089
  15 H       3.686699  -7.515075  -0.609784   -0.000062   0.000126   0.000040
  16 H       5.529899  -5.060353   0.698930    0.000108   0.000017   0.000036
  17 H      -0.668911  -8.667192   1.424079   -0.000013   0.000014  -0.000075
  18 H      -1.072880  -6.144276   3.590045   -0.000055   0.000045   0.000070
  19 H      -3.657364  -7.210672   1.754881   -0.000109   0.000002  -0.000019
  20 H      -0.508114  -7.657719  -3.362392   -0.000052   0.000016   0.000107
  21 H      -3.679118  -6.745857  -2.844902   -0.000097   0.000005  -0.000044
  22 H      -1.580342  -4.653079  -4.388041   -0.000006   0.000071  -0.000121
  23 C      -1.521767   4.187311   0.413965    0.000171  -0.000897  -0.000061
  24 C       0.807089   5.890261   0.009429   -0.000131   0.000772   0.000373
  25 H      -5.421422   3.644653  -0.524038   -0.000078  -0.000110  -0.000070
  26 H      -3.605050   4.875411  -3.037621   -0.000089  -0.000061  -0.000040
  27 C       1.631951   5.923049  -2.758245    0.000334  -0.000156  -0.000188
  28 C       2.977612   4.895812   1.637965    0.000223  -0.000231  -0.000167
  29 H      -4.492844   6.847589  -0.482345    0.000017  -0.000116   0.000037
  30 C      -3.893972   4.946280  -0.997808   -0.000118   0.000325  -0.000063
  31 H      -1.925240   4.197519   2.448479    0.000096   0.000222   0.000023
  32 C       0.164370   8.573844   0.869634   -0.000076  -0.000126   0.000073
  33 H       4.620175   6.133165   1.462335    0.000026  -0.000005   0.000035
  34 H       3.542630   2.997543   1.068908   -0.000010   0.000048   0.000116
  35 H       2.440222   4.834220   3.632509    0.000024   0.000023  -0.000008
  36 H       0.187372   6.744699  -3.980731    0.000061   0.000035  -0.000031
  37 H       2.046523   4.019053  -3.433744   -0.000166   0.000001  -0.000080
  38 H       3.343464   7.058347  -2.966189   -0.000026  -0.000019  -0.000021
  39 H       1.861065   9.747416   0.816135    0.000001   0.000026   0.000001
  40 H      -0.550720   8.589004   2.808248   -0.000068   0.000056   0.000028
  41 H      -1.247312   9.458768  -0.345221   -0.000038   0.000117  -0.000033
 
  no constraints, skipping   0.000000000000000E+000

  Step       Energy      Delta E   Gmax     Grms     Xrms     Xmax   Walltime
  ---- ---------------- -------- -------- -------- -------- -------- --------
@    1   -1038.72914927 -2.4D-04  0.00070  0.00012  0.04238  0.12787  21799.9
                                                                    

  no constraints, skipping   0.000000000000000E+000
  no constraints, skipping   0.000000000000000E+000
  no constraints, skipping   0.000000000000000E+000
  no constraints, skipping   0.000000000000000E+000
  no constraints, skipping   0.000000000000000E+000
  no constraints, skipping   0.000000000000000E+000
  no constraints, skipping   0.000000000000000E+000
  no constraints, skipping   0.000000000000000E+000
 
                                 NWChem DFT Module
                                 -----------------
 
 
                                       der7
 
 
 
 
 solvent parameters
 solvname_short: chcl3   
 solvname_long:  chloroform                         
 dielec:        4.7113
 dielecinf:     2.0906

          ---------------
          -cosmo- solvent
          ---------------
 Cosmo: York-Karplus, doi: 10.1021/jp992097l
 dielectric constant -eps-     =   4.71
 screen = (eps-1)/(eps    )    =   0.78774
 surface charge correction     = lagrangian
 -lineq- algorithm             =   0
 -bem- low  level              =   2
 -bem- from -octahedral-
 gaussian surface charge width =   0.98000
 degree of switching           =   1.00000
 switching function tolerance  =   0.00010
 atomic radii = 
 --------------
    1  8.000  1.720
    2 15.000  2.106
    3  8.000  1.720
    4  8.000  1.720
    5  6.000  2.000
    6  6.000  2.000
    7  6.000  2.000
    8  6.000  2.000
    9  6.000  2.000
   10  6.000  2.000
   11  1.000  1.300
   12  1.000  1.300
   13  1.000  1.300
   14  1.000  1.300
   15  1.000  1.300
   16  1.000  1.300
   17  1.000  1.300
   18  1.000  1.300
   19  1.000  1.300
   20  1.000  1.300
   21  1.000  1.300
   22  1.000  1.300
   23  6.000  2.000
   24  6.000  2.000
   25  1.000  1.300
   26  1.000  1.300
   27  6.000  2.000
   28  6.000  2.000
   29  1.000  1.300
   30  6.000  2.000
   31  1.000  1.300
   32  6.000  2.000
   33  1.000  1.300
   34  1.000  1.300
   35  1.000  1.300
   36  1.000  1.300
   37  1.000  1.300
   38  1.000  1.300
   39  1.000  1.300
   40  1.000  1.300
   41  1.000  1.300

 solvent accessible surface
 --------------------------

 ---------- ATOMIC COORDINATES (A.U.) ------------ VDWR(ANG.) --
     1   -0.91570834    1.63086579   -0.33556807     1.720
     2   -1.15229491   -0.58735015    1.79890347     2.106
     3    1.58825083   -2.02898598    1.72048774     1.720
     4   -2.55803512   -2.76153543    0.07823309     1.720
     5    1.73826428   -3.97280420   -0.21619544     2.000
     6   -1.01801638   -4.98714713   -0.34426980     2.000
     7    2.62485489   -2.77611211   -2.67545494     2.000
     8    3.65134746   -5.90445888    0.67578130     2.000
     9   -1.62323140   -6.86330966    1.74781210     2.000
    10   -1.73863564   -6.07166393   -2.89273043     2.000
    11    2.97637954   -4.22488095   -4.09813847     1.300
    12    1.25380184   -1.43258938   -3.41598480     1.300
    13    4.39321610   -1.77558737   -2.32703409     1.300
    14    3.22155822   -6.57435676    2.57239998     1.300
    15    3.68549776   -7.51700093   -0.60960977     1.300
    16    5.53072392   -5.05870686    0.68939846     1.300
    17   -0.66952425   -8.66264188    1.43486399     1.300
    18   -1.06806999   -6.13413133    3.59452915     1.300
    19   -3.65581721   -7.20212472    1.76497858     1.300
    20   -0.51399389   -7.66675247   -3.35293294     1.300
    21   -3.68343110   -6.75110757   -2.83112442     1.300
    22   -1.58645159   -4.66476747   -4.38490648     1.300
    23   -1.52169182    4.18609739    0.40635656     2.000
    24    0.80654688    5.88975281    0.01056244     2.000
    25   -5.41891533    3.64321642   -0.53745034     1.300
    26   -3.59959523    4.88195099   -3.04568676     1.300
    27    1.63650671    5.93244330   -2.75459073     2.000
    28    2.97329093    4.89206032    1.64140384     2.000
    29   -4.49277757    6.84681461   -0.48695387     1.300
    30   -3.89201389    4.94685526   -1.00623802     2.000
    31   -1.92789665    4.18990451    2.44019200     1.300
    32    0.16113337    8.57037562    0.87754875     2.000
    33    4.61540288    6.13088781    1.47284154     1.300
    34    3.54049320    2.99567461    1.06749713     1.300
    35    2.43102246    4.82425636    3.63447243     1.300
    36    0.19336251    6.75698947   -3.97686550     1.300
    37    2.05517762    4.03120709   -3.43543690     1.300
    38    3.34762121    7.06989393   -2.95466202     1.300
    39    1.85748707    9.74460665    0.83095089     1.300
    40   -0.55736297    8.57841908    2.81482973     1.300
    41   -1.24876124    9.45735252   -0.33742351     1.300
 number of segments per atom =         32
 number of   points per atom =         32
 atom (   nspa,  nppa )
[...]
   23 Stretch                 10    22                       1.08837    0.00008
   24 Stretch                 23    24                       1.54084   -0.00038
   25 Stretch                 23    30                       1.51439    0.00013
   26 Stretch                 23    31                       1.09749   -0.00098
   27 Stretch                 24    27                       1.52749    0.00081
   28 Stretch                 24    28                       1.52896    0.00092
   29 Stretch                 24    32                       1.52981    0.00147
   30 Stretch                 25    30                       1.09081   -0.00003
   31 Stretch                 26    30                       1.09074    0.00002
   32 Stretch                 27    36                       1.09172    0.00003
   33 Stretch                 27    37                       1.09153    0.00037
   34 Stretch                 27    38                       1.09245   -0.00006
   35 Stretch                 28    33                       1.09211   -0.00010
   36 Stretch                 28    34                       1.09071    0.00014
   37 Stretch                 28    35                       1.09360   -0.00019
   38 Stretch                 29    30                       1.08973   -0.00006
   39 Stretch                 32    39                       1.09196   -0.00017
   40 Stretch                 32    40                       1.09345    0.00001
   41 Stretch                 32    41                       1.09098   -0.00003
   42 Bend                     1     2     3               104.22503    0.01727
   43 Bend                     1     2     4                98.67442   -0.44978
   44 Bend                     1    23    24               109.65542    0.33240
   45 Bend                     1    23    30               107.16359   -0.36398
   46 Bend                     1    23    31               108.07755   -0.12605
   47 Bend                     2     1    23               118.12976   -1.55325
   48 Bend                     2     3     5               113.38393   -0.15538
   49 Bend                     2     4     6               113.03784   -0.92835
   50 Bend                     3     2     4                93.47160    0.16580
   51 Bend                     3     5     6               102.87903    0.19020
   52 Bend                     3     5     7               108.84026    0.03787
   53 Bend                     3     5     8               107.18116   -0.21259
   54 Bend                     4     6     5               103.58936   -0.04478
   55 Bend                     4     6     9               107.71622    0.18248
   56 Bend                     4     6    10               107.61242   -0.23162
   57 Bend                     5     6     9               112.99837   -0.00417
   58 Bend                     5     6    10               113.99738   -0.02800
   59 Bend                     5     7    11               110.53010   -0.15029
   60 Bend                     5     7    12               111.90269    0.11788
   61 Bend                     5     7    13               108.82927    0.10337
   62 Bend                     5     8    14               111.52527   -0.14916
   63 Bend                     5     8    15               110.15850   -0.12835
   64 Bend                     5     8    16               109.61870    0.02188
   65 Bend                     6     5     7               113.26172   -0.01348
   66 Bend                     6     5     8               114.03592   -0.06374
   67 Bend                     6     9    17               111.21753   -0.08245
   68 Bend                     6     9    18               111.45715   -0.00432
   69 Bend                     6     9    19               108.72041    0.00027
   70 Bend                     6    10    20               110.05161   -0.24594
   71 Bend                     6    10    21               109.65615    0.03722
   72 Bend                     6    10    22               111.53188   -0.04418
   73 Bend                     7     5     8               110.11208    0.05898
   74 Bend                     9     6    10               110.37732    0.11452
   75 Bend                    11     7    12               108.83544   -0.23201
   76 Bend                    11     7    13               108.13328   -0.03521
   77 Bend                    12     7    13               108.51631    0.20011
   78 Bend                    14     8    15               108.88340    0.13353
   79 Bend                    14     8    16               108.54656    0.07998
   80 Bend                    15     8    16               108.02553    0.05222
   81 Bend                    17     9    18               108.58381   -0.07763
   82 Bend                    17     9    19               108.31852    0.05977
   83 Bend                    18     9    19               108.45507    0.11206
   84 Bend                    20    10    21               108.18918    0.20281
   85 Bend                    20    10    22               108.81235    0.02543
   86 Bend                    21    10    22               108.52276    0.03706
   87 Bend                    23    24    27               111.65401    0.23727
   88 Bend                    23    24    28               108.79673    0.08521
   89 Bend                    23    24    32               108.81917   -0.25213
   90 Bend                    23    30    25               109.49755   -0.00357
   91 Bend                    23    30    26               111.24186    0.14476
   92 Bend                    23    30    29               111.24755   -0.10298
   93 Bend                    24    23    30               116.06242    0.17566
   94 Bend                    24    23    31               106.89836   -0.07884
   95 Bend                    24    27    36               111.87981    0.02973
   96 Bend                    24    27    37               111.13479    0.16923
   97 Bend                    24    27    38               109.82406   -0.05443
   98 Bend                    24    28    33               110.06811   -0.06316
   99 Bend                    24    28    34               111.55107    0.09537
  100 Bend                    24    28    35               111.03638   -0.00646
  101 Bend                    24    32    39               109.74969   -0.05347
  102 Bend                    24    32    40               111.22550   -0.07880
  103 Bend                    24    32    41               112.01749   -0.05025
  104 Bend                    25    30    26               108.10615    0.08458
  105 Bend                    25    30    29               108.04540    0.06046
  106 Bend                    26    30    29               108.59555   -0.18052
  107 Bend                    27    24    28               109.29278    0.02317
  108 Bend                    27    24    32               109.72681   -0.02529
  109 Bend                    28    24    32               108.49033   -0.07561
  110 Bend                    30    23    31               108.74954    0.04413
  111 Bend                    33    28    34               108.03666   -0.11310
  112 Bend                    33    28    35               107.88720    0.06537
  113 Bend                    34    28    35               108.13264    0.01981
  114 Bend                    36    27    37               108.37031    0.01832
  115 Bend                    36    27    38               107.59253    0.02745
  116 Bend                    37    27    38               107.89067   -0.20258
  117 Bend                    39    32    40               107.73986    0.03136
  118 Bend                    39    32    41               107.73485    0.15722
  119 Bend                    40    32    41               108.21530    0.00541
  120 Torsion                  1     2     3     5         -86.88301   -2.52155
  121 Torsion                  1     2     4     6         117.17847    3.58737
  122 Torsion                  1    23    24    27          60.55305    0.25062
  123 Torsion                  1    23    24    28         -60.15342    0.01667
  124 Torsion                  1    23    24    32        -178.18309    0.20213
  125 Torsion                  1    23    30    25          59.11247    0.20781
  126 Torsion                  1    23    30    26         -60.31676    0.01487
  127 Torsion                  1    23    30    29         178.46982    0.21619
  128 Torsion                  2     1    23    24         116.37788   -4.39613
  129 Torsion                  2     1    23    30        -116.85285   -4.20553
  130 Torsion                  2     1    23    31           0.19264   -4.41149
  131 Torsion                  2     3     5     6         -31.35967    1.32105
  132 Torsion                  2     3     5     7          89.04303    1.42342
  133 Torsion                  2     3     5     8        -151.89247    1.39451
  134 Torsion                  2     4     6     5         -30.97405   -3.31015
  135 Torsion                  2     4     6     9          88.97242   -3.25325
  136 Torsion                  2     4     6    10        -152.01994   -3.14437
  137 Torsion                  3     2     1    23        -129.06992   -1.72846
  138 Torsion                  3     2     4     6          12.21005    3.58670
  139 Torsion                  3     5     6     4          36.94848    1.42630
  140 Torsion                  3     5     6     9         -79.32776    1.23819
  141 Torsion                  3     5     6    10         153.58669    1.10618
  142 Torsion                  3     5     7    11         172.62261   -0.68928
  143 Torsion                  3     5     7    12         -65.90224   -1.01033
  144 Torsion                  3     5     7    13          54.01395   -0.62065
  145 Torsion                  3     5     8    14          52.34532   -0.28883
  146 Torsion                  3     5     8    15         173.36981   -0.30718
  147 Torsion                  3     5     8    16         -67.89226   -0.30771
  148 Torsion                  4     2     1    23         135.08335   -1.78362
  149 Torsion                  4     2     3     5          12.97778   -2.94173
  150 Torsion                  4     6     5     7         -80.36540    1.27352
  151 Torsion                  4     6     5     8         152.65473    1.25850
  152 Torsion                  4     6     9    17         173.98701   -0.30029
  153 Torsion                  4     6     9    18         -64.68642   -0.46023
  154 Torsion                  4     6     9    19          54.80742   -0.32419
  155 Torsion                  4     6    10    20         174.68642   -0.75088
  156 Torsion                  4     6    10    21         -66.41699   -0.62895
  157 Torsion                  4     6    10    22          53.81991   -0.58618
  158 Torsion                  5     6     9    17         -72.21291   -0.24655
  159 Torsion                  5     6     9    18          49.11367   -0.40649
  160 Torsion                  5     6     9    19         168.60751   -0.27045
  161 Torsion                  5     6    10    20          60.40839   -0.53363
  162 Torsion                  5     6    10    21         179.30498   -0.41170
  163 Torsion                  5     6    10    22         -60.45812   -0.36893
  164 Torsion                  6     5     7    11         -73.60971   -0.44054
  165 Torsion                  6     5     7    12          47.86543   -0.76160
  166 Torsion                  6     5     7    13         167.78163   -0.37192
  167 Torsion                  6     5     8    14         -60.81767   -0.35494
  168 Torsion                  6     5     8    15          60.20682   -0.37329
  169 Torsion                  6     5     8    16         178.94475   -0.37382
  170 Torsion                  7     5     6     9         163.35836    1.08541
  171 Torsion                  7     5     6    10          36.27281    0.95341
  172 Torsion                  7     5     8    14         170.58665   -0.33484
  173 Torsion                  7     5     8    15         -68.38886   -0.35319
  174 Torsion                  7     5     8    16          50.34907   -0.35371
  175 Torsion                  8     5     6     9          36.37848    1.07039
  176 Torsion                  8     5     6    10         -90.70707    0.93838
  177 Torsion                  8     5     7    11          55.40754   -0.48830
  178 Torsion                  8     5     7    12         176.88268   -0.80935
  179 Torsion                  8     5     7    13         -63.20113   -0.41967
  180 Torsion                  9     6    10    20         -68.02320   -0.60350
  181 Torsion                  9     6    10    21          50.87340   -0.48156
  182 Torsion                  9     6    10    22         171.11030   -0.43879
  183 Torsion                 10     6     9    17          56.76078   -0.19128
  184 Torsion                 10     6     9    18         178.08735   -0.35122
  185 Torsion                 10     6     9    19         -62.41881   -0.21519
  186 Torsion                 23    24    27    36          63.14755   -0.66751
  187 Torsion                 23    24    27    37         -58.14134   -0.83043
  188 Torsion                 23    24    27    38        -177.44639   -0.65020
  189 Torsion                 23    24    28    33        -176.03719    1.02263
  190 Torsion                 23    24    28    34          64.04912    1.14477
  191 Torsion                 23    24    28    35         -56.64101    1.05910
  192 Torsion                 23    24    32    39         172.96325   -0.09444
  193 Torsion                 23    24    32    40          53.83663   -0.04935
  194 Torsion                 23    24    32    41         -67.41338    0.03491
  195 Torsion                 24    23    30    25        -178.00319    0.47832
  196 Torsion                 24    23    30    26          62.56758    0.28538
  197 Torsion                 24    23    30    29         -58.64584    0.48670
  198 Torsion                 25    30    23    31         -57.49060    0.52877
  199 Torsion                 26    30    23    31        -176.91983    0.33584
  200 Torsion                 27    24    23    30         -61.01544    0.34376
  201 Torsion                 27    24    23    31         177.48163    0.23145
  202 Torsion                 27    24    28    33          61.81353    0.66403
  203 Torsion                 27    24    28    34         -58.10016    0.78617
  204 Torsion                 27    24    28    35        -178.79029    0.70049
  205 Torsion                 27    24    32    39         -64.60118    0.02107
  206 Torsion                 27    24    32    40         176.27220    0.06616
  207 Torsion                 27    24    32    41          55.02219    0.15042
  208 Torsion                 28    24    23    30         178.27809    0.10981
  209 Torsion                 28    24    23    31          56.77516   -0.00249
  210 Torsion                 28    24    27    36        -176.43598   -0.39499
  211 Torsion                 28    24    27    37          62.27513   -0.55792
  212 Torsion                 28    24    27    38         -57.02991   -0.37768
  213 Torsion                 28    24    32    39          54.74019   -0.01103
  214 Torsion                 28    24    32    40         -64.38643    0.03406
  215 Torsion                 28    24    32    41         174.36356    0.11833
  216 Torsion                 29    30    23    31          61.86675    0.53715
  217 Torsion                 30    23    24    32          60.24841    0.29527
  218 Torsion                 31    23    24    32         -61.25452    0.18297
  219 Torsion                 32    24    27    36         -57.58810   -0.48830
  220 Torsion                 32    24    27    37        -178.87699   -0.65122
  221 Torsion                 32    24    27    38          61.81797   -0.47099
  222 Torsion                 32    24    28    33         -57.79989    0.72594
  223 Torsion                 32    24    28    34        -177.71358    0.84808
  224 Torsion                 32    24    28    35          61.59629    0.76240
 
 
 
                                NWChem Input Module
                                -------------------
 
 
 
 
                                     CITATION
                                     --------
                Please cite the following reference when publishing
                           results obtained with NWChem:
 
          E. Apra, E. J. Bylaska, W. A. de Jong, N. Govind, K. Kowalski,
       T. P. Straatsma, M. Valiev, H. J. J. van Dam, Y. Alexeev, J. Anchell,
       V. Anisimov, F. W. Aquino, R. Atta-Fynn, J. Autschbach, N. P. Bauman,
     J. C. Becca, D. E. Bernholdt, K. Bhaskaran-Nair, S. Bogatko, P. Borowski,
         J. Boschen, J. Brabec, A. Bruner, E. Cauet, Y. Chen, G. N. Chuev,
      C. J. Cramer, J. Daily, M. J. O. Deegan, T. H. Dunning Jr., M. Dupuis,
   K. G. Dyall, G. I. Fann, S. A. Fischer, A. Fonari, H. Fruchtl, L. Gagliardi,
      J. Garza, N. Gawande, S. Ghosh, K. Glaesemann, A. W. Gotz, J. Hammond,
       V. Helms, E. D. Hermes, K. Hirao, S. Hirata, M. Jacquelin, L. Jensen,
   B. G. Johnson, H. Jonsson, R. A. Kendall, M. Klemm, R. Kobayashi, V. Konkov,
      S. Krishnamoorthy, M. Krishnan, Z. Lin, R. D. Lins, R. J. Littlefield,
      A. J. Logsdail, K. Lopata, W. Ma, A. V. Marenich, J. Martin del Campo,
   D. Mejia-Rodriguez, J. E. Moore, J. M. Mullin, T. Nakajima, D. R. Nascimento,
    J. A. Nichols, P. J. Nichols, J. Nieplocha, A. Otero-de-la-Roza, B. Palmer,
    A. Panyala, T. Pirojsirikul, B. Peng, R. Peverati, J. Pittner, L. Pollack,
   R. M. Richard, P. Sadayappan, G. C. Schatz, W. A. Shelton, D. W. Silverstein,
   D. M. A. Smith, T. A. Soares, D. Song, M. Swart, H. L. Taylor, G. S. Thomas,
            V. Tipparaju, D. G. Truhlar, K. Tsemekhman, T. Van Voorhis,
      A. Vazquez-Mayagoitia, P. Verma, O. Villa, A. Vishnu, K. D. Vogiatzis,
        D. Wang, J. H. Weare, M. J. Williamson, T. L. Windus, K. Wolinski,
        A. T. Wong, Q. Wu, C. Yang, Q. Yu, M. Zacharias, Z. Zhang, Y. Zhao,
                                and R. J. Harrison
                        "NWChem: Past, present, and future
                         J. Chem. Phys. 152, 184102 (2020)
                               doi:10.1063/5.0004997
 
                                      AUTHORS
                                      -------
     E. Apra, E. J. Bylaska, N. Govind, K. Kowalski, M. Valiev, W. A. de Jong,
      T. P. Straatsma, H. J. J. van Dam, D. Wang, T. L. Windus, N. P. Bauman,
       A. Panyala, J. Hammond, J. Autschbach, K. Bhaskaran-Nair, J. Brabec,
    K. Lopata, S. A. Fischer, S. Krishnamoorthy, M. Jacquelin, W. Ma, M. Klemm,
       O. Villa, Y. Chen, V. Anisimov, F. Aquino, S. Hirata, M. T. Hackler,
           Eric Hermes, L. Jensen, J. E. Moore, J. C. Becca, V. Konjkov,
            D. Mejia-Rodriguez, T. Risthaus, M. Malagoli, A. Marenich,
   A. Otero-de-la-Roza, J. Mullin, P. Nichols, R. Peverati, J. Pittner, Y. Zhao,
        P.-D. Fan, A. Fonari, M. J. Williamson, R. J. Harrison, J. R. Rehr,
      M. Dupuis, D. Silverstein, D. M. A. Smith, J. Nieplocha, V. Tipparaju,
      M. Krishnan, B. E. Van Kuiken, A. Vazquez-Mayagoitia, M. Swart, Q. Wu,
   T. Van Voorhis, A. A. Auer, M. Nooijen, L. D. Crosby, E. Brown, G. Cisneros,
     G. I. Fann, H. Fruchtl, J. Garza, K. Hirao, R. A. Kendall, J. A. Nichols,
       K. Tsemekhman, K. Wolinski, J. Anchell, D. E. Bernholdt, P. Borowski,
       T. Clark, D. Clerc, H. Dachsel, M. J. O. Deegan, K. Dyall, D. Elwood,
      E. Glendening, M. Gutowski, A. C. Hess, J. Jaffe, B. G. Johnson, J. Ju,
        R. Kobayashi, R. Kutteh, Z. Lin, R. Littlefield, X. Long, B. Meng,
      T. Nakajima, S. Niu, L. Pollack, M. Rosing, K. Glaesemann, G. Sandrone,
      M. Stave, H. Taylor, G. Thomas, J. H. van Lenthe, A. T. Wong, Z. Zhang.

 Total times  cpu:   267783.5s     wall:   267983.8s
