 argument  1 = /home/milias/Work/open-collection/theoretical_chemistry/projects/nmr_diplomovky/derivaty_markerov/derivative_7_Ivan/nwchem/geometry_optimization/6-311++g2d_2p/der7.geomopt_b3lyp_cosmo-chcl3_6-311++g2d_2p.nw
 


============================== echo of input deck ==============================
echo

start molecule

memory total 40 gb

print low

title "der7"
charge 0

dft
  mult 1
end

geometry units angstroms print xyz autosym
  #load format xyz der1.pbe0_tz2p_good_cosmo-chcl3_optimized_geom.xyz
  load format xyz der7.geopt_freq_nmr_pbe0_tz2p_good_cosmo-chcl3_converged_geometry.xyz
end

basis
  * library 6-311++G(2d,2p)
end

dft
  direct
  grid fine
  xc b3lyp
  mult 1
# Reduce output during geometry optimization
  noprint "final vectors analysis"
end

#end

driver
  tight
  maxiter 9999
  xyz der7_b3lyp_geom_6-311++g2d_2p
end

cosmo
  solvent chcl3
end

task dft optimize
================================================================================


                                         
                                         
 
 
             Northwest Computational Chemistry Package (NWChem) 7.0.1
             --------------------------------------------------------
 
 
                    Environmental Molecular Sciences Laboratory
                       Pacific Northwest National Laboratory
                                Richland, WA 99352
 
                              Copyright (c) 1994-2020
                       Pacific Northwest National Laboratory
                            Battelle Memorial Institute
 
             NWChem is an open-source computational chemistry package
                        distributed under the terms of the
                      Educational Community License (ECL) 2.0
             A copy of the license is included with this distribution
                              in the LICENSE.TXT file
 
                                  ACKNOWLEDGMENT
                                  --------------

            This software and its documentation were developed at the
            EMSL at Pacific Northwest National Laboratory, a multiprogram
            national laboratory, operated for the U.S. Department of Energy
            by Battelle under Contract Number DE-AC05-76RL01830. Support
            for this work was provided by the Department of Energy Office
            of Biological and Environmental Research, Office of Basic
            Energy Sciences, and the Office of Advanced Scientific Computing.


           Job information
           ---------------

    hostname        = comp32.grid.umb.sk
    program         = /home/milias/Work/qch/software/nwchem_suite/nwchem_master/bin/LINUX64/nwchem
    date            = Wed Oct 20 14:34:30 2021

    compiled        = Sat_Sep_11_13:54:11_2021
    source          = /home/milias/Work/qch/software/nwchem_suite/nwchem_master
    nwchem branch   = 7.0.0
    nwchem revision = nwchem_on_git-2853-g04c637f
    ga revision     = 5.8.0
    use scalapack   = F
    input           = /home/milias/Work/open-collection/theoretical_chemistry/projects/nmr_diplomovky/derivaty_markerov/derivative_7_Ivan/nwchem/geometry_optimization/6-311++g2d_2p/der7.geomopt_b3lyp_cosmo-chcl3_6-311++g2d_2p.nw
    prefix          = molecule.
    data base       = ./molecule.db
    status          = startup
    nproc           =       12
    time left       =     -1s



           Memory information
           ------------------

    heap     = 1342177280 doubles =  10240.0 Mbytes
    stack    = 1342177277 doubles =  10240.0 Mbytes
    global   = 2684354560 doubles =  20480.0 Mbytes (distinct from heap & stack)
    total    = 5368709117 doubles =  40960.0 Mbytes
    verify   = yes
    hardfail = no 


           Directory information
           ---------------------
 
  0 permanent = .
  0 scratch   = .
 
 
 
 
                                NWChem Input Module
                                -------------------
 
 
                                       der7
                                       ----

 Scaling coordinates for geometry "geometry" by  1.889725989
 (inverse scale =  0.529177249)


          ------
          auto-z
          ------
  no constraints, skipping   0.000000000000000E+000
  no constraints, skipping   0.000000000000000E+000
 
 
                             Geometry "geometry" -> ""
                             -------------------------
 
 Output coordinates in angstroms (scale by  1.889725989 to convert to a.u.)
 
  No.       Tag          Charge          X              Y              Z
 ---- ---------------- ---------- -------------- -------------- --------------
    1 O                    8.0000    -0.50216668     0.85537211    -0.12834916
    2 P                   15.0000    -0.63064458    -0.32262092     0.97996985
    3 O                    8.0000     0.81731041    -1.07428424     0.93530794
    4 O                    8.0000    -1.35852625    -1.46521994     0.06116893
    5 C                    6.0000     0.91464622    -2.08240142    -0.10218592
    6 C                    6.0000    -0.54003015    -2.63146921    -0.18307282
    7 C                    6.0000     1.37877018    -1.41794955    -1.38943746
    8 C                    6.0000     1.93645133    -3.10318597     0.35292889
    9 C                    6.0000    -0.85332417    -3.64722040     0.90495537
   10 C                    6.0000    -0.91535686    -3.18562729    -1.54186113
   11 H                    1.0000     1.57599348    -2.16510174    -2.15916846
   12 H                    1.0000     0.64489947    -0.70635141    -1.76420937
   13 H                    1.0000     2.30697768    -0.88070084    -1.19121678
   14 H                    1.0000     1.71188744    -3.48025475     1.34896416
   15 H                    1.0000     1.96663009    -3.94444128    -0.34221403
   16 H                    1.0000     2.92657159    -2.64638347     0.37160271
   17 H                    1.0000    -0.34207195    -4.59292309     0.72299894
   18 H                    1.0000    -0.56491609    -3.27844384     1.89026687
   19 H                    1.0000    -1.92744661    -3.83492259     0.90968779
   20 H                    1.0000    -0.26399523    -4.02202605    -1.80285109
   21 H                    1.0000    -1.94176217    -3.55327708    -1.51658532
   22 H                    1.0000    -0.83963082    -2.42687038    -2.31834208
   23 C                    6.0000    -0.81161689     2.21103554     0.23479712
   24 C                    6.0000     0.42840678     3.09664450     0.00367522
   25 H                    1.0000    -2.87631653     1.93572748    -0.26216086
   26 H                    1.0000    -1.90303754     2.55280710    -1.59921943
   27 C                    6.0000     0.86121657     3.07873324    -1.46025626
   28 C                    6.0000     1.57155175     2.57622489     0.87390018
   29 H                    1.0000    -2.37016686     3.62554514    -0.26749123
   30 C                    6.0000    -2.06065462     2.61199595    -0.52157872
   31 H                    1.0000    -1.02815055     2.23700245     1.31139438
   32 C                    6.0000     0.10575282     4.52859834     0.42940749
   33 H                    1.0000     2.44789781     3.21933446     0.76737454
   34 H                    1.0000     1.85788219     1.56240111     0.59192528
   35 H                    1.0000     1.28861102     2.56824952     1.93042760
   36 H                    1.0000     0.09981115     3.50794677    -2.11433398
   37 H                    1.0000     1.06666725     2.06045355    -1.79421485
   38 H                    1.0000     1.77310873     3.66729554    -1.58526188
   39 H                    1.0000     1.00991617     5.13972713     0.38740363
   40 H                    1.0000    -0.27136068     4.56266354     1.45519830
   41 H                    1.0000    -0.63614787     4.99264128    -0.22217622
 
      Atomic Mass 
      ----------- 
 
      O                 15.994910
      P                 30.973760
      C                 12.000000
      H                  1.007825
 

 Effective nuclear repulsion energy (a.u.)    1460.5273199254

            Nuclear Dipole moment (a.u.) 
            ----------------------------
        X                 Y               Z
 ---------------- ---------------- ----------------
    -0.0000000000     0.0000000000    -0.0000000000
 


                                Z-matrix (autoz)
                                -------- 

 Units are Angstrom for bonds and degrees for angles
 
      Type          Name      I     J     K     L     M      Value
      ----------- --------  ----- ----- ----- ----- ----- ----------
    1 Stretch                  1     2                       1.62251
    2 Stretch                  1    23                       1.43717
    3 Stretch                  2     3                       1.63204
    4 Stretch                  2     4                       1.63693
    5 Stretch                  3     5                       1.44989
    6 Stretch                  4     6                       1.44559
    7 Stretch                  5     6                       1.55695
    8 Stretch                  5     7                       1.52116
    9 Stretch                  5     8                       1.51434
   10 Stretch                  6     9                       1.52109
   11 Stretch                  6    10                       1.51468
   12 Stretch                  7    11                       1.09070
   13 Stretch                  7    12                       1.08876
   14 Stretch                  7    13                       1.09064
   15 Stretch                  8    14                       1.08844
   16 Stretch                  8    15                       1.09172
   17 Stretch                  8    16                       1.09058
   18 Stretch                  9    17                       1.09034
   19 Stretch                  9    18                       1.09088
   20 Stretch                  9    19                       1.09041
   21 Stretch                 10    20                       1.09176
   22 Stretch                 10    21                       1.09056
   23 Stretch                 10    22                       1.08829
   24 Stretch                 23    24                       1.54123
   25 Stretch                 23    30                       1.51426
   26 Stretch                 23    31                       1.09846
   27 Stretch                 24    27                       1.52668
   28 Stretch                 24    28                       1.52804
   29 Stretch                 24    32                       1.52835
   30 Stretch                 25    30                       1.09084
   31 Stretch                 26    30                       1.09071
   32 Stretch                 27    36                       1.09169
   33 Stretch                 27    37                       1.09116
   34 Stretch                 27    38                       1.09251
   35 Stretch                 28    33                       1.09221
   36 Stretch                 28    34                       1.09057
   37 Stretch                 28    35                       1.09379
   38 Stretch                 29    30                       1.08979
   39 Stretch                 32    39                       1.09213
   40 Stretch                 32    40                       1.09344
   41 Stretch                 32    41                       1.09102
   42 Bend                     1     2     3               104.20776
   43 Bend                     1     2     4                99.12420
   44 Bend                     1    23    24               109.32303
   45 Bend                     1    23    30               107.52757
   46 Bend                     1    23    31               108.20361
   47 Bend                     2     1    23               119.68301
   48 Bend                     2     3     5               113.53931
   49 Bend                     2     4     6               113.96619
   50 Bend                     3     2     4                93.30580
   51 Bend                     3     5     6               102.68883
   52 Bend                     3     5     7               108.80239
   53 Bend                     3     5     8               107.39375
   54 Bend                     4     6     5               103.63414
   55 Bend                     4     6     9               107.53374
   56 Bend                     4     6    10               107.84404
   57 Bend                     5     6     9               113.00254
   58 Bend                     5     6    10               114.02538
   59 Bend                     5     7    11               110.68039
   60 Bend                     5     7    12               111.78481
   61 Bend                     5     7    13               108.72590
   62 Bend                     5     8    14               111.67444
   63 Bend                     5     8    15               110.28685
   64 Bend                     5     8    16               109.59683
   65 Bend                     6     5     7               113.27520
   66 Bend                     6     5     8               114.09966
   67 Bend                     6     9    17               111.29998
   68 Bend                     6     9    18               111.46147
   69 Bend                     6     9    19               108.72014
   70 Bend                     6    10    20               110.29755
   71 Bend                     6    10    21               109.61892
   72 Bend                     6    10    22               111.57605
   73 Bend                     7     5     8               110.05310
   74 Bend                     9     6    10               110.26281
   75 Bend                    11     7    12               109.06745
   76 Bend                    11     7    13               108.16849
   77 Bend                    12     7    13               108.31619
   78 Bend                    14     8    15               108.74987
   79 Bend                    14     8    16               108.46658
   80 Bend                    15     8    16               107.97331
   81 Bend                    17     9    18               108.66144
   82 Bend                    17     9    19               108.25875
   83 Bend                    18     9    19               108.34301
   84 Bend                    20    10    21               107.98637
   85 Bend                    20    10    22               108.78693
   86 Bend                    21    10    22               108.48571
   87 Bend                    23    24    27               111.41675
   88 Bend                    23    24    28               108.71152
   89 Bend                    23    24    32               109.07131
   90 Bend                    23    30    25               109.50112
   91 Bend                    23    30    26               111.09710
   92 Bend                    23    30    29               111.35054
   93 Bend                    24    23    30               115.88675
   94 Bend                    24    23    31               106.97720
   95 Bend                    24    27    36               111.85008
   96 Bend                    24    27    37               110.96557
   97 Bend                    24    27    38               109.87849
   98 Bend                    24    28    33               110.13127
   99 Bend                    24    28    34               111.45571
  100 Bend                    24    28    35               111.04283
  101 Bend                    24    32    39               109.80317
  102 Bend                    24    32    40               111.30431
  103 Bend                    24    32    41               112.06774
  104 Bend                    25    30    26               108.02157
  105 Bend                    25    30    29               107.98494
  106 Bend                    26    30    29               108.77606
  107 Bend                    27    24    28               109.26961
  108 Bend                    27    24    32               109.75210
  109 Bend                    28    24    32               108.56594
  110 Bend                    30    23    31               108.70541
  111 Bend                    33    28    34               108.14976
  112 Bend                    33    28    35               107.82183
  113 Bend                    34    28    35               108.11283
  114 Bend                    36    27    37               108.35199
  115 Bend                    36    27    38               107.56508
  116 Bend                    37    27    38               108.09326
  117 Bend                    39    32    40               107.70850
  118 Bend                    39    32    41               107.57763
  119 Bend                    40    32    41               108.20988
  120 Torsion                  1     2     3     5         -84.36146
  121 Torsion                  1     2     4     6         113.59110
  122 Torsion                  1    23    24    27          60.30244
  123 Torsion                  1    23    24    28         -60.17009
  124 Torsion                  1    23    24    32        -178.38522
  125 Torsion                  1    23    30    25          58.90466
  126 Torsion                  1    23    30    26         -60.33164
  127 Torsion                  1    23    30    29         178.25363
  128 Torsion                  2     1    23    24         120.77401
  129 Torsion                  2     1    23    30        -112.64732
  130 Torsion                  2     1    23    31           4.60412
  131 Torsion                  2     3     5     6         -32.68073
  132 Torsion                  2     3     5     7          87.61961
  133 Torsion                  2     3     5     8        -153.28698
  134 Torsion                  2     4     6     5         -27.66390
  135 Torsion                  2     4     6     9          92.22567
  136 Torsion                  2     4     6    10        -148.87557
  137 Torsion                  3     2     1    23        -127.34146
  138 Torsion                  3     2     4     6           8.62335
  139 Torsion                  3     5     6     4          35.52218
  140 Torsion                  3     5     6     9         -80.56595
  141 Torsion                  3     5     6    10         152.48050
  142 Torsion                  3     5     7    11         173.31189
  143 Torsion                  3     5     7    12         -64.89191
  144 Torsion                  3     5     7    13          54.63460
  145 Torsion                  3     5     8    14          52.63415
  146 Torsion                  3     5     8    15         173.67699
  147 Torsion                  3     5     8    16         -67.58455
  148 Torsion                  4     2     1    23         136.86697
  149 Torsion                  4     2     3     5          15.91952
  150 Torsion                  4     6     5     7         -81.63892
  151 Torsion                  4     6     5     8         151.39623
  152 Torsion                  4     6     9    17         174.28729
  153 Torsion                  4     6     9    18         -64.22619
  154 Torsion                  4     6     9    19          55.13161
  155 Torsion                  4     6    10    20         175.43730
  156 Torsion                  4     6    10    21         -65.78804
  157 Torsion                  4     6    10    22          54.40610
  158 Torsion                  5     6     9    17         -71.96636
  159 Torsion                  5     6     9    18          49.52016
  160 Torsion                  5     6     9    19         168.87796
  161 Torsion                  5     6    10    20          60.94202
  162 Torsion                  5     6    10    21         179.71668
  163 Torsion                  5     6    10    22         -60.08919
  164 Torsion                  6     5     7    11         -73.16917
  165 Torsion                  6     5     7    12          48.62703
  166 Torsion                  6     5     7    13         168.15354
  167 Torsion                  6     5     8    14         -60.46273
  168 Torsion                  6     5     8    15          60.58011
  169 Torsion                  6     5     8    16         179.31857
  170 Torsion                  7     5     6     9         162.27295
  171 Torsion                  7     5     6    10          35.31941
  172 Torsion                  7     5     8    14         170.92149
  173 Torsion                  7     5     8    15         -68.03567
  174 Torsion                  7     5     8    16          50.70278
  175 Torsion                  8     5     6     9          35.30809
  176 Torsion                  8     5     6    10         -91.64545
  177 Torsion                  8     5     7    11          55.89583
  178 Torsion                  8     5     7    12         177.69203
  179 Torsion                  8     5     7    13         -62.78146
  180 Torsion                  9     6    10    20         -67.41970
  181 Torsion                  9     6    10    21          51.35496
  182 Torsion                  9     6    10    22         171.54909
  183 Torsion                 10     6     9    17          56.95206
  184 Torsion                 10     6     9    18         178.43858
  185 Torsion                 10     6     9    19         -62.20362
  186 Torsion                 23    24    27    36          63.81505
  187 Torsion                 23    24    27    37         -57.31091
  188 Torsion                 23    24    27    38        -176.79619
  189 Torsion                 23    24    28    33        -177.05982
  190 Torsion                 23    24    28    34          62.90435
  191 Torsion                 23    24    28    35         -57.70011
  192 Torsion                 23    24    32    39         173.05770
  193 Torsion                 23    24    32    40          53.88598
  194 Torsion                 23    24    32    41         -67.44829
  195 Torsion                 24    23    30    25        -178.48151
  196 Torsion                 24    23    30    26          62.28220
  197 Torsion                 24    23    30    29         -59.13254
  198 Torsion                 25    30    23    31         -58.01937
  199 Torsion                 26    30    23    31        -177.25567
  200 Torsion                 27    24    23    30         -61.35920
  201 Torsion                 27    24    23    31         177.25018
  202 Torsion                 27    24    28    33          61.14951
  203 Torsion                 27    24    28    34         -58.88633
  204 Torsion                 27    24    28    35        -179.49079
  205 Torsion                 27    24    32    39         -64.62224
  206 Torsion                 27    24    32    40         176.20605
  207 Torsion                 27    24    32    41          54.87177
  208 Torsion                 28    24    23    30         178.16827
  209 Torsion                 28    24    23    31          56.77765
  210 Torsion                 28    24    27    36        -176.04099
  211 Torsion                 28    24    27    37          62.83305
  212 Torsion                 28    24    27    38         -56.65223
  213 Torsion                 28    24    32    39          54.75122
  214 Torsion                 28    24    32    40         -64.42050
  215 Torsion                 28    24    32    41         174.24523
  216 Torsion                 29    30    23    31          61.32960
  217 Torsion                 30    23    24    32          59.95314
  218 Torsion                 31    23    24    32         -61.43749
  219 Torsion                 32    24    27    36         -57.09980
  220 Torsion                 32    24    27    37        -178.22577
  221 Torsion                 32    24    27    38          62.28896
  222 Torsion                 32    24    28    33         -58.52583
  223 Torsion                 32    24    28    34        -178.56166
  224 Torsion                 32    24    28    35          60.83388
 
 
            XYZ format geometry
            -------------------
    41
 geometry
 O                    -0.50216668     0.85537211    -0.12834916
 P                    -0.63064458    -0.32262092     0.97996985
 O                     0.81731041    -1.07428424     0.93530794
 O                    -1.35852625    -1.46521994     0.06116893
 C                     0.91464622    -2.08240142    -0.10218592
 C                    -0.54003015    -2.63146921    -0.18307282
 C                     1.37877018    -1.41794955    -1.38943746
 C                     1.93645133    -3.10318597     0.35292889
 C                    -0.85332417    -3.64722040     0.90495537
 C                    -0.91535686    -3.18562729    -1.54186113
 H                     1.57599348    -2.16510174    -2.15916846
 H                     0.64489947    -0.70635141    -1.76420937
 H                     2.30697768    -0.88070084    -1.19121678
 H                     1.71188744    -3.48025475     1.34896416
 H                     1.96663009    -3.94444128    -0.34221403
 H                     2.92657159    -2.64638347     0.37160271
 H                    -0.34207195    -4.59292309     0.72299894
 H                    -0.56491609    -3.27844384     1.89026687
 H                    -1.92744661    -3.83492259     0.90968779
 H                    -0.26399523    -4.02202605    -1.80285109
 H                    -1.94176217    -3.55327708    -1.51658532
 H                    -0.83963082    -2.42687038    -2.31834208
 C                    -0.81161689     2.21103554     0.23479712
 C                     0.42840678     3.09664450     0.00367522
 H                    -2.87631653     1.93572748    -0.26216086
 H                    -1.90303754     2.55280710    -1.59921943
 C                     0.86121657     3.07873324    -1.46025626
 C                     1.57155175     2.57622489     0.87390018
 H                    -2.37016686     3.62554514    -0.26749123
 C                    -2.06065462     2.61199595    -0.52157872
 H                    -1.02815055     2.23700245     1.31139438
 C                     0.10575282     4.52859834     0.42940749
 H                     2.44789781     3.21933446     0.76737454
 H                     1.85788219     1.56240111     0.59192528
 H                     1.28861102     2.56824952     1.93042760
 H                     0.09981115     3.50794677    -2.11433398
 H                     1.06666725     2.06045355    -1.79421485
 H                     1.77310873     3.66729554    -1.58526188
 H                     1.00991617     5.13972713     0.38740363
 H                    -0.27136068     4.56266354     1.45519830
 H                    -0.63614787     4.99264128    -0.22217622
 
 ==============================================================================
                                internuclear distances
 ------------------------------------------------------------------------------
       center one      |      center two      | atomic units |  angstroms
 ------------------------------------------------------------------------------
    2 P                |   1 O                |     3.06610  |     1.62251
    3 O                |   2 P                |     3.08412  |     1.63204
    4 O                |   2 P                |     3.09335  |     1.63693
    5 C                |   3 O                |     2.73989  |     1.44989
    6 C                |   4 O                |     2.73177  |     1.44559
    6 C                |   5 C                |     2.94221  |     1.55695
    7 C                |   5 C                |     2.87457  |     1.52116
    8 C                |   5 C                |     2.86168  |     1.51434
    9 C                |   6 C                |     2.87444  |     1.52109
   10 C                |   6 C                |     2.86234  |     1.51468
   11 H                |   7 C                |     2.06112  |     1.09070
   12 H                |   7 C                |     2.05745  |     1.08876
   13 H                |   7 C                |     2.06101  |     1.09064
   14 H                |   8 C                |     2.05685  |     1.08844
   15 H                |   8 C                |     2.06305  |     1.09172
   16 H                |   8 C                |     2.06089  |     1.09058
   17 H                |   9 C                |     2.06044  |     1.09034
   18 H                |   9 C                |     2.06146  |     1.09088
   19 H                |   9 C                |     2.06058  |     1.09041
   20 H                |  10 C                |     2.06314  |     1.09176
   21 H                |  10 C                |     2.06085  |     1.09056
   22 H                |  10 C                |     2.05656  |     1.08829
   23 C                |   1 O                |     2.71586  |     1.43717
   24 C                |  23 C                |     2.91250  |     1.54123
   27 C                |  24 C                |     2.88500  |     1.52668
   28 C                |  24 C                |     2.88758  |     1.52804
   30 C                |  23 C                |     2.86153  |     1.51426
   30 C                |  25 H                |     2.06140  |     1.09084
   30 C                |  26 H                |     2.06115  |     1.09071
   30 C                |  29 H                |     2.05940  |     1.08979
   31 H                |  23 C                |     2.07580  |     1.09846
   32 C                |  24 C                |     2.88816  |     1.52835
   33 H                |  28 C                |     2.06398  |     1.09221
   34 H                |  28 C                |     2.06087  |     1.09057
   35 H                |  28 C                |     2.06696  |     1.09379
   36 H                |  27 C                |     2.06299  |     1.09169
   37 H                |  27 C                |     2.06199  |     1.09116
   38 H                |  27 C                |     2.06455  |     1.09251
   39 H                |  32 C                |     2.06383  |     1.09213
   40 H                |  32 C                |     2.06631  |     1.09344
   41 H                |  32 C                |     2.06172  |     1.09102
 ------------------------------------------------------------------------------
                         number of included internuclear distances:         41
 ==============================================================================



 ==============================================================================
                                 internuclear angles
 ------------------------------------------------------------------------------
        center 1       |       center 2       |       center 3       |  degrees
 ------------------------------------------------------------------------------
    2 P                |   1 O                |  23 C                |   119.68
    1 O                |   2 P                |   3 O                |   104.21
    1 O                |   2 P                |   4 O                |    99.12
    3 O                |   2 P                |   4 O                |    93.31
    2 P                |   3 O                |   5 C                |   113.54
    2 P                |   4 O                |   6 C                |   113.97
    3 O                |   5 C                |   6 C                |   102.69
    3 O                |   5 C                |   7 C                |   108.80
    3 O                |   5 C                |   8 C                |   107.39
    6 C                |   5 C                |   7 C                |   113.28
    6 C                |   5 C                |   8 C                |   114.10
    7 C                |   5 C                |   8 C                |   110.05
    4 O                |   6 C                |   5 C                |   103.63
    4 O                |   6 C                |   9 C                |   107.53
    4 O                |   6 C                |  10 C                |   107.84
    5 C                |   6 C                |   9 C                |   113.00
    5 C                |   6 C                |  10 C                |   114.03
    9 C                |   6 C                |  10 C                |   110.26
    5 C                |   7 C                |  11 H                |   110.68
    5 C                |   7 C                |  12 H                |   111.78
    5 C                |   7 C                |  13 H                |   108.73
   11 H                |   7 C                |  12 H                |   109.07
   11 H                |   7 C                |  13 H                |   108.17
   12 H                |   7 C                |  13 H                |   108.32
    5 C                |   8 C                |  14 H                |   111.67
    5 C                |   8 C                |  15 H                |   110.29
    5 C                |   8 C                |  16 H                |   109.60
   14 H                |   8 C                |  15 H                |   108.75
   14 H                |   8 C                |  16 H                |   108.47
   15 H                |   8 C                |  16 H                |   107.97
    6 C                |   9 C                |  17 H                |   111.30
    6 C                |   9 C                |  18 H                |   111.46
    6 C                |   9 C                |  19 H                |   108.72
   17 H                |   9 C                |  18 H                |   108.66
   17 H                |   9 C                |  19 H                |   108.26
   18 H                |   9 C                |  19 H                |   108.34
    6 C                |  10 C                |  20 H                |   110.30
    6 C                |  10 C                |  21 H                |   109.62
    6 C                |  10 C                |  22 H                |   111.58
   20 H                |  10 C                |  21 H                |   107.99
   20 H                |  10 C                |  22 H                |   108.79
   21 H                |  10 C                |  22 H                |   108.49
    1 O                |  23 C                |  24 C                |   109.32
    1 O                |  23 C                |  30 C                |   107.53
    1 O                |  23 C                |  31 H                |   108.20
   24 C                |  23 C                |  30 C                |   115.89
   24 C                |  23 C                |  31 H                |   106.98
   30 C                |  23 C                |  31 H                |   108.71
   23 C                |  24 C                |  27 C                |   111.42
   23 C                |  24 C                |  28 C                |   108.71
   23 C                |  24 C                |  32 C                |   109.07
   27 C                |  24 C                |  28 C                |   109.27
   27 C                |  24 C                |  32 C                |   109.75
   28 C                |  24 C                |  32 C                |   108.57
   24 C                |  27 C                |  36 H                |   111.85
   24 C                |  27 C                |  37 H                |   110.97
   24 C                |  27 C                |  38 H                |   109.88
   36 H                |  27 C                |  37 H                |   108.35
   36 H                |  27 C                |  38 H                |   107.57
   37 H                |  27 C                |  38 H                |   108.09
   24 C                |  28 C                |  33 H                |   110.13
   24 C                |  28 C                |  34 H                |   111.46
   24 C                |  28 C                |  35 H                |   111.04
   33 H                |  28 C                |  34 H                |   108.15
   33 H                |  28 C                |  35 H                |   107.82
   34 H                |  28 C                |  35 H                |   108.11
   23 C                |  30 C                |  25 H                |   109.50
   23 C                |  30 C                |  26 H                |   111.10
   23 C                |  30 C                |  29 H                |   111.35
   25 H                |  30 C                |  26 H                |   108.02
   25 H                |  30 C                |  29 H                |   107.98
   26 H                |  30 C                |  29 H                |   108.78
   24 C                |  32 C                |  39 H                |   109.80
   24 C                |  32 C                |  40 H                |   111.30
   24 C                |  32 C                |  41 H                |   112.07
   39 H                |  32 C                |  40 H                |   107.71
   39 H                |  32 C                |  41 H                |   107.58
   40 H                |  32 C                |  41 H                |   108.21
 ------------------------------------------------------------------------------
                            number of included internuclear angles:         78
 ==============================================================================





 Summary of "ao basis" -> "" (cartesian)
 ------------------------------------------------------------------------------
       Tag                 Description            Shells   Functions and Types
 ---------------- ------------------------------  ------  ---------------------
 *                      6-311++G(2d,2p)               on all atoms 


 
 
                           NWChem Geometry Optimization
                           ----------------------------
 
 
 
 
                                       der7
 
 
  no constraints, skipping   0.000000000000000E+000
 maximum gradient threshold         (gmax) =   0.000015
 rms gradient threshold             (grms) =   0.000010
 maximum cartesian step threshold   (xmax) =   0.000060
 rms cartesian step threshold       (xrms) =   0.000040
 fixed trust radius                (trust) =   0.300000
 maximum step size to saddle      (sadstp) =   0.100000
 energy precision                  (eprec) =   5.0D-06
 maximum number of steps          (nptopt) = 9999
 initial hessian option           (inhess) =    0
 line search option               (linopt) =    1
 hessian update option            (modupd) =    1
 saddle point option              (modsad) =    0
 initial eigen-mode to follow     (moddir) =    0
 initial variable to follow       (vardir) =    0
 follow first negative mode     (firstneg) =    T
 apply conjugacy                    (opcg) =    F
 source of zmatrix                         =   autoz   


          -------------------
          Energy Minimization
          -------------------

 
 Names of Z-matrix variables 
    1              2              3              4              5         
    6              7              8              9             10         
   11             12             13             14             15         
   16             17             18             19             20         
   21             22             23             24             25         
   26             27             28             29             30         
   31             32             33             34             35         
   36             37             38             39             40         
   41             42             43             44             45         
   46             47             48             49             50         
   51             52             53             54             55         
   56             57             58             59             60         
   61             62             63             64             65         
   66             67             68             69             70         
   71             72             73             74             75         
   76             77             78             79             80         
   81             82             83             84             85         
   86             87             88             89             90         
   91             92             93             94             95         
   96             97             98             99            100         
  101            102            103            104            105         
  106            107            108            109            110         
  111            112            113            114            115         
  116            117            118            119            120         
  121            122            123            124            125         
  126            127            128            129            130         
  131            132            133            134            135         
  136            137            138            139            140         
  141            142            143            144            145         
  146            147            148            149            150         
  151            152            153            154            155         
  156            157            158            159            160         
  161            162            163            164            165         
  166            167            168            169            170         
  171            172            173            174            175         
  176            177            178            179            180         
  181            182            183            184            185         
  186            187            188            189            190         
  191            192            193            194            195         
  196            197            198            199            200         
  201            202            203            204            205         
  206            207            208            209            210         
  211            212            213            214            215         
  216            217            218            219            220         
  221            222            223            224         
 
 Variables with the same non-blank name are constrained to be equal
 
 
 Using diagonal initial Hessian 
 Scaling for Hessian diagonals: bonds = 1.00  angles = 0.25  torsions = 0.10

          --------
          Step   0
          --------
 
                                 NWChem DFT Module
                                 -----------------
 
 
                                       der7
 
 
                      Basis "ao basis" -> "ao basis" (cartesian)
                      -----
  O (Oxygen)
  ----------
            Exponent  Coefficients 
       -------------- ---------------------------------------------------------
  1 S  8.58850000E+03  0.001895
  1 S  1.29723000E+03  0.014386
  1 S  2.99296000E+02  0.070732
  1 S  8.73771000E+01  0.240001
  1 S  2.56789000E+01  0.594797
  1 S  3.74004000E+00  0.280802
 
  2 S  4.21175000E+01  0.113889
  2 S  9.62837000E+00  0.920811
  2 S  2.85332000E+00 -0.003274
 
  3 P  4.21175000E+01  0.036511
  3 P  9.62837000E+00  0.237153
  3 P  2.85332000E+00  0.819702
 
  4 S  9.05661000E-01  1.000000
 
  5 P  9.05661000E-01  1.000000
 
  6 S  2.55611000E-01  1.000000
 
  7 P  2.55611000E-01  1.000000
 
  8 S  8.45000000E-02  1.000000
 
  9 P  8.45000000E-02  1.000000
 
 10 D  2.58400000E+00  1.000000
 
 11 D  6.46000000E-01  1.000000
 
  P (Phosphorous)
  ---------------
            Exponent  Coefficients 
       -------------- ---------------------------------------------------------
  1 S  7.74924000E+04  0.000781
  1 S  1.16058000E+04  0.006068
  1 S  2.64596000E+03  0.031160
  1 S  7.54976000E+02  0.123431
  1 S  2.48755000E+02  0.378209
  1 S  9.11565000E+01  0.563262
 
  2 S  9.11565000E+01  0.160255
  2 S  3.62257000E+01  0.627647
  2 S  1.52113000E+01  0.263849
 
  3 S  4.79417000E+00  1.000000
 
  4 S  1.80793000E+00  1.000000
 
  5 S  3.56816000E-01  1.000000
 
  6 S  1.14783000E-01  1.000000
 
  7 P  3.84843000E+02  0.009206
  7 P  9.05521000E+01  0.069874
  7 P  2.91339000E+01  0.292470
  7 P  1.08862000E+01  0.728103
 
  8 P  4.35259000E+00  0.628349
  8 P  1.77706000E+00  0.428044
 
  9 P  6.97005000E-01  1.000000
 
 10 P  2.53532000E-01  1.000000
 
 11 P  6.84930000E-02  1.000000
 
 12 S  3.48000000E-02  1.000000
 
 13 P  3.48000000E-02  1.000000
 
 14 D  1.10000000E+00  1.000000
 
 15 D  2.75000000E-01  1.000000
 
  C (Carbon)
  ----------
            Exponent  Coefficients 
       -------------- ---------------------------------------------------------
  1 S  4.56324000E+03  0.001967
  1 S  6.82024000E+02  0.015231
  1 S  1.54973000E+02  0.076127
  1 S  4.44553000E+01  0.260801
  1 S  1.30290000E+01  0.616462
  1 S  1.82773000E+00  0.221006
 
  2 S  2.09642000E+01  0.114660
  2 S  4.80331000E+00  0.919999
  2 S  1.45933000E+00 -0.003031
 
  3 P  2.09642000E+01  0.040249
  3 P  4.80331000E+00  0.237594
  3 P  1.45933000E+00  0.815854
 
  4 S  4.83456000E-01  1.000000
 
  5 P  4.83456000E-01  1.000000
 
  6 S  1.45585000E-01  1.000000
 
  7 P  1.45585000E-01  1.000000
 
  8 S  4.38000000E-02  1.000000
 
  9 P  4.38000000E-02  1.000000
 
 10 D  1.25200000E+00  1.000000
 
 11 D  3.13000000E-01  1.000000
 
  H (Hydrogen)
  ------------
            Exponent  Coefficients 
       -------------- ---------------------------------------------------------
  1 S  3.38650000E+01  0.025494
  1 S  5.09479000E+00  0.190373
  1 S  1.15879000E+00  0.852161
 
  2 S  3.25840000E-01  1.000000
 
  3 S  1.02741000E-01  1.000000
 
  4 S  3.60000000E-02  1.000000
 
  5 P  1.50000000E+00  1.000000
 
  6 P  3.75000000E-01  1.000000
 


 Summary of "ao basis" -> "ao basis" (cartesian)
 ------------------------------------------------------------------------------
       Tag                 Description            Shells   Functions and Types
 ---------------- ------------------------------  ------  ---------------------
 O                      6-311++G(2d,2p)             11       29   5s4p2d
 P                      6-311++G(2d,2p)             15       37   7s6p2d
 C                      6-311++G(2d,2p)             11       29   5s4p2d
 H                      6-311++G(2d,2p)              6       10   4s2p


 
 
 solvent parameters
 solvname_short: chcl3   
 solvname_long:  chloroform                         
 dielec:        4.7113
 dielecinf:     2.0906

          ---------------
          -cosmo- solvent
          ---------------
 Cosmo: York-Karplus, doi: 10.1021/jp992097l
 dielectric constant -eps-     =   4.71
 screen = (eps-1)/(eps    )    =   0.78774
 surface charge correction     = lagrangian
 -lineq- algorithm             =   0
 -bem- low  level              =   2
 -bem- from -octahedral-
 gaussian surface charge width =   0.98000
 degree of switching           =   1.00000
 switching function tolerance  =   0.00010
 atomic radii = 
 --------------
    1  8.000  1.720
    2 15.000  2.106
    3  8.000  1.720
    4  8.000  1.720
    5  6.000  2.000
    6  6.000  2.000
    7  6.000  2.000
    8  6.000  2.000
    9  6.000  2.000
   10  6.000  2.000
   11  1.000  1.300
   12  1.000  1.300
   13  1.000  1.300
   14  1.000  1.300
   15  1.000  1.300
   16  1.000  1.300
   17  1.000  1.300
   18  1.000  1.300
   19  1.000  1.300
   20  1.000  1.300
   21  1.000  1.300
   22  1.000  1.300
   23  6.000  2.000
   24  6.000  2.000
   25  1.000  1.300
   26  1.000  1.300
   27  6.000  2.000
   28  6.000  2.000
   29  1.000  1.300
   30  6.000  2.000
   31  1.000  1.300
   32  6.000  2.000
   33  1.000  1.300
   34  1.000  1.300
   35  1.000  1.300
   36  1.000  1.300
   37  1.000  1.300
   38  1.000  1.300
   39  1.000  1.300
   40  1.000  1.300
   41  1.000  1.300

 solvent accessible surface
 --------------------------

 ---------- ATOMIC COORDINATES (A.U.) ------------ VDWR(ANG.) --
     1   -0.94895743    1.61641891   -0.24254474     1.720
     2   -1.19174545   -0.60966513    1.85187450     2.106
     3    1.54449272   -2.03010285    1.76747572     1.720
     4   -2.56724235   -2.76886420    0.11559252     1.720
     5    1.72843073   -3.93516809   -0.19310338     2.000
     6   -1.02050901   -4.97275575   -0.34595746     2.000
     7    2.60549783   -2.67953612   -2.62565609     2.000
     8    3.65936240   -5.86417118    0.66693890     2.000
     9   -1.61254886   -6.89224718    1.71011768     2.000
    10   -1.72977365   -6.01996268   -2.91369505     2.000
    11    2.97819583   -4.09144902   -4.08023676     1.300
    12    1.21868329   -1.33481062   -3.33387230     1.300
    13    4.35955568   -1.66428327   -2.25107331     1.300
    14    3.23499818   -6.57672786    2.54917264     1.300
    15    3.71639198   -7.45391320   -0.64669074     1.300
    16    5.53041840   -5.00093962    0.70222730     1.300
    17   -0.64642225   -8.67936613    1.36626988     1.300
    18   -1.06753661   -6.19536053    3.57208643     1.300
    19   -3.64234596   -7.24695288    1.71906066     1.300
    20   -0.49887865   -7.60052715   -3.40689456     1.300
    21   -3.66939844   -6.71472004   -2.86593069     1.300
    22   -1.58667219   -4.58612003   -4.38103128     1.300
    23   -1.53373352    4.17825131    0.44370222     2.000
    24    0.80957142    5.85180960    0.00694515     2.000
    25   -5.43545010    3.65799453   -0.49541219     1.300
    26   -3.59621950    4.82410592   -3.02208653     1.300
    27    1.62746333    5.81796221   -2.75948420     2.000
    28    2.96980218    4.86835913    1.65143189     2.000
    29   -4.47896592    6.85128688   -0.50548514     1.300
    30   -3.89407259    4.93595664   -0.98564086     2.000
    31   -1.94292281    4.22732167    2.47817604     1.300
    32    0.19984386    8.55780998    0.81146250     2.000
    33    4.62585610    6.08366000    1.45012761     1.300
    34    3.51088825    2.95250998    1.11857659     1.300
    35    2.43512174    4.85328787    3.64797921     1.300
    36    0.18861572    6.62905818   -3.99551188     1.300
    37    2.01570882    3.89369261   -3.39057443     1.300
    38    3.35068964    6.93018370   -2.99571058     1.300
    39    1.90846484    9.71267593    0.73208670     1.300
    40   -0.51279732    8.62218387    2.74992605     1.300
    41   -1.20214517    9.43472398   -0.41985218     1.300
 number of segments per atom =         32
 number of   points per atom =         32
 atom (   nspa,  nppa )
 ----------------------
    1 (      9,     0 )       0
    2 (     11,     0 )       0
    3 (     12,     0 )       0
    4 (     10,     0 )       0
    5 (      0,     0 )       0
    6 (      0,     0 )       0
    7 (     15,     0 )       0
    8 (     17,     0 )       0
    9 (     14,     0 )       0
   10 (     17,     0 )       0
   11 (     14,     0 )       0
   12 (     14,     0 )       0
   13 (     15,     0 )       0
   14 (     12,     0 )       0
   15 (     13,     0 )       0
   16 (     15,     0 )       0
   17 (     13,     0 )       0
   18 (     13,     0 )       0
   19 (     15,     0 )       0
   20 (     15,     0 )       0
   21 (     14,     0 )       0
   22 (     11,     0 )       0
   23 (      5,     0 )       0
   24 (      2,     0 )       0
   25 (     15,     0 )       0
   26 (     15,     0 )       0
   27 (     15,     0 )       0
   28 (     16,     0 )       0
   29 (     12,     0 )       0
   30 (     15,     0 )       0
   31 (     12,     0 )       0
   32 (     13,     0 )       0
   33 (     14,     0 )       0
   34 (     13,     0 )       0
   35 (     14,     0 )       0
   36 (     14,     0 )       0
   37 (     13,     0 )       0
   38 (     15,     0 )       0
   39 (     15,     0 )       0
   40 (     14,     0 )       0
   41 (     15,     0 )       0
 number of -cosmo- surface points =      516
 molecular surface =    294.313 angstrom**2
 molecular volume  =    160.408 angstrom**3
 G(cav/disp)       =      2.332 kcal/mol
 ...... end of -cosmo- initialization ......


  Caching 1-el integrals 
 
 WARNING : Found     3 linear dependencies 
 S eigenvalue threshold:     1.00000E-05
 Smallest S eigenvalue :     2.21384E-06
 Largest  S eigenvalue :     4.65232E-06
 
   Time after variat. SCF:    253.4
   Time prior to 1st pass:    253.4
  Resetting Diis


         Total DFT energy =    -1039.705913334512
      One electron energy =    -4325.853885226567
           Coulomb energy =     1948.672105732102
    Exchange-Corr. energy =     -123.920872874828
 Nuclear repulsion energy =     1460.527319925389

             COSMO energy =        0.869419109393

 Numeric. integr. density =      136.000030052785

     Total iterative time =   8862.9s


                                   COSMO solvation results
                                   -----------------------

                 gas phase energy =     -1039.698074350310
                 sol phase energy =     -1039.705913334512
 (electrostatic) solvation energy =         0.007838984202 (    4.92 kcal/mol)


                         DFT ENERGY GRADIENTS

    atom               coordinates                        gradient
                 x          y          z           x          y          z
   1 O      -0.948957   1.616419  -0.242545   -0.001426   0.000977   0.009067
   2 P      -1.191745  -0.609665   1.851875    0.005056  -0.002987  -0.014149
   3 O       1.544493  -2.030103   1.767476   -0.007773  -0.002587  -0.006085
   4 O      -2.567242  -2.768864   0.115593    0.009571  -0.000688   0.003751
   5 C       1.728431  -3.935168  -0.193103   -0.000770   0.004587   0.003648
   6 C      -1.020509  -4.972756  -0.345957   -0.002915   0.005261   0.001389
   7 C       2.605498  -2.679536  -2.625656   -0.002251  -0.002488   0.004593
   8 C       3.659362  -5.864171   0.666939   -0.003871   0.003553  -0.001559
   9 C      -1.612549  -6.892247   1.710118    0.001827   0.003782  -0.003982
  10 C      -1.729774  -6.019963  -2.913695    0.001882   0.001981   0.004796
  11 H       2.978196  -4.091449  -4.080237    0.000026  -0.000954  -0.000450
  12 H       1.218683  -1.334811  -3.333872   -0.001444   0.001106   0.000369
  13 H       4.359556  -1.664283  -2.251073    0.000531   0.000332   0.000564
  14 H       3.234998  -6.576728   2.549173   -0.000626  -0.000328   0.000882
  15 H       3.716392  -7.453913  -0.646691   -0.000244  -0.000685  -0.000757
  16 H       5.530418  -5.000940   0.702227    0.000476   0.000495  -0.000160
  17 H      -0.646422  -8.679366   1.366270    0.000622  -0.000652  -0.000451
  18 H      -1.067537  -6.195361   3.572086    0.000389   0.000772   0.000743
  19 H      -3.642346  -7.246953   1.719061   -0.000686   0.000122  -0.000259
  20 H      -0.498879  -7.600527  -3.406895    0.000467  -0.000731  -0.000108
  21 H      -3.669398  -6.714720  -2.865931   -0.000526  -0.000318   0.000361
  22 H      -1.586672  -4.586120  -4.381031    0.000498   0.001056  -0.000433
  23 C      -1.533734   4.178251   0.443702    0.002614  -0.005770  -0.006460
  24 C       0.809571   5.851810   0.006945    0.000056   0.000100  -0.000295
  25 H      -5.435450   3.657995  -0.495412   -0.000227  -0.000477   0.000223
  26 H      -3.596220   4.824106  -3.022087    0.000717  -0.000295  -0.000725
  27 C       1.627463   5.817962  -2.759484   -0.001771  -0.000103   0.005527
  28 C       2.969802   4.868359   1.651432   -0.004685   0.001881  -0.003338
  29 H      -4.478966   6.851287  -0.505485   -0.000069   0.000894   0.000518
  30 C      -3.894073   4.935957  -0.985641    0.004749  -0.000880   0.002253
  31 H      -1.942923   4.227322   2.478176   -0.000077  -0.000146   0.001875
  32 C       0.199844   8.557810   0.811462    0.001009  -0.005939  -0.001487
  33 H       4.625856   6.083660   1.450128    0.000366   0.000681  -0.000246
  34 H       3.510888   2.952510   1.118577   -0.000290  -0.001376  -0.000699
  35 H       2.435122   4.853288   3.647979   -0.000546   0.000202   0.000778
  36 H       0.188616   6.629058  -3.995512   -0.000925   0.000413  -0.000131
  37 H       2.015709   3.893693  -3.390574   -0.000246  -0.001259   0.000338
  38 H       3.350690   6.930184  -2.995711    0.000573   0.000566   0.000377
  39 H       1.908465   9.712676   0.732087    0.000767   0.000168  -0.000161
  40 H      -0.512797   8.622184   2.749926   -0.000252  -0.000338   0.000715
  41 H      -1.202145   9.434724  -0.419852   -0.000574   0.000074  -0.000832
 
  no constraints, skipping   0.000000000000000E+000

@ Step       Energy      Delta E   Gmax     Grms     Xrms     Xmax   Walltime
@ ---- ---------------- -------- -------- -------- -------- -------- --------
@    0   -1039.70591333  0.0D+00  0.01262  0.00231  0.00000  0.00000   9638.2
                                                                    

  no constraints, skipping   0.000000000000000E+000
  no constraints, skipping   0.000000000000000E+000
  no constraints, skipping   0.000000000000000E+000
  no constraints, skipping   0.000000000000000E+000
  no constraints, skipping   0.000000000000000E+000
  no constraints, skipping   0.000000000000000E+000
  no constraints, skipping   0.000000000000000E+000
  no constraints, skipping   0.000000000000000E+000
 
                                 NWChem DFT Module
                                 -----------------
 
 
                                       der7
 
 
 
 
 solvent parameters
 solvname_short: chcl3   
 solvname_long:  chloroform                         
 dielec:        4.7113
 dielecinf:     2.0906

          ---------------
          -cosmo- solvent
          ---------------
 Cosmo: York-Karplus, doi: 10.1021/jp992097l
 dielectric constant -eps-     =   4.71
 screen = (eps-1)/(eps    )    =   0.78774
 surface charge correction     = lagrangian
 -lineq- algorithm             =   0
 -bem- low  level              =   2
 -bem- from -octahedral-
 gaussian surface charge width =   0.98000
 degree of switching           =   1.00000
 switching function tolerance  =   0.00010
 atomic radii = 
 --------------
    1  8.000  1.720
    2 15.000  2.106
    3  8.000  1.720
    4  8.000  1.720
    5  6.000  2.000
    6  6.000  2.000
    7  6.000  2.000
    8  6.000  2.000
    9  6.000  2.000
   10  6.000  2.000
   11  1.000  1.300
   12  1.000  1.300
   13  1.000  1.300
   14  1.000  1.300
   15  1.000  1.300
   16  1.000  1.300
   17  1.000  1.300
   18  1.000  1.300
   19  1.000  1.300
   20  1.000  1.300
   21  1.000  1.300
   22  1.000  1.300
   23  6.000  2.000
   24  6.000  2.000
   25  1.000  1.300
   26  1.000  1.300
   27  6.000  2.000
   28  6.000  2.000
   29  1.000  1.300
   30  6.000  2.000
   31  1.000  1.300
   32  6.000  2.000
   33  1.000  1.300
   34  1.000  1.300
   35  1.000  1.300
   36  1.000  1.300
   37  1.000  1.300
   38  1.000  1.300
   39  1.000  1.300
   40  1.000  1.300
   41  1.000  1.300

 solvent accessible surface
 --------------------------

 ---------- ATOMIC COORDINATES (A.U.) ------------ VDWR(ANG.) --
     1   -0.93456933    1.64253795   -0.25467856     1.720
     2   -1.16735539   -0.61911811    1.84219459     2.106
     3    1.57450658   -2.07781145    1.75156789     1.720
     4   -2.56748315   -2.79490852    0.10414013     1.720
     5    1.74931213   -4.02448166   -0.21289427     2.000
     6   -1.03025749   -5.04287978   -0.35412831     2.000
     7    2.65720100   -2.80063831   -2.66969594     2.000
     8    3.68075643   -5.96475058    0.66798305     2.000
     9   -1.65327092   -6.95107813    1.72541496     2.000
    10   -1.76531666   -6.11155197   -2.92195450     2.000
    11    3.02334841   -4.23068398   -4.10408314     1.300
    12    1.29829383   -1.45196829   -3.41063019     1.300
    13    4.41941877   -1.80102833   -2.30274235     1.300
    14    3.25936328   -6.65728890    2.55504518     1.300
    15    3.73112169   -7.56631607   -0.62687407     1.300
    16    5.55546900   -5.11362065    0.69414890     1.300
    17   -0.71500524   -8.75275759    1.39679972     1.300
    18   -1.10221438   -6.25581477    3.58284638     1.300
    19   -3.68554732   -7.27961860    1.73773310     1.300
    20   -0.55587992   -7.70885136   -3.40377508     1.300
    21   -3.71093122   -6.78305621   -2.86338835     1.300
    22   -1.61470083   -4.70024831   -4.40599039     1.300
    23   -1.52908238    4.23315555    0.44601010     2.000
    24    0.81264010    5.94980551    0.01664118     2.000
    25   -5.43972872    3.67189088   -0.48807426     1.300
    26   -3.63211007    4.86310972   -3.01834352     1.300
    27    1.64454517    5.94644624   -2.76415211     2.000
    28    2.99984921    4.98743624    1.66824084     2.000
    29   -4.52384865    6.87148361   -0.50025868     1.300
    30   -3.91573791    4.96679274   -0.98187441     2.000
    31   -1.93660315    4.27465698    2.47545773     1.300
    32    0.16192878    8.65869344    0.84121841     2.000
    33    4.63630351    6.22696659    1.47612441     1.300
    34    3.57775022    3.08720810    1.13358120     1.300
    35    2.46796403    4.95363425    3.66266112     1.300
    36    0.20335075    6.74425893   -4.00177197     1.300
    37    2.06565441    4.03878818   -3.41456682     1.300
    38    3.35061218    7.08294317   -2.99053431     1.300
    39    1.85166145    9.83795171    0.77248844     1.300
    40   -0.55320641    8.70535121    2.77699230     1.300
    41   -1.24848662    9.52696995   -0.38209252     1.300
 number of segments per atom =         32
 number of   points per atom =         32
 atom (   nspa,  nppa )
 ----------------------
    1 (      9,     0 )       0
    2 (     12,     0 )       0
    3 (     13,     0 )       0
    4 (     10,     0 )       0
    5 (      1,     0 )       0
    6 (      0,     0 )       0
    7 (     16,     0 )       0
    8 (     17,     0 )       0
    9 (     14,     0 )       0
   10 (     18,     0 )       0
   11 (     14,     0 )       0
   12 (     14,     0 )       0
   13 (     15,     0 )       0
   14 (     12,     0 )       0
   15 (     13,     0 )       0
   16 (     15,     0 )       0
   17 (     13,     0 )       0
   18 (     13,     0 )       0
   19 (     15,     0 )       0
   20 (     15,     0 )       0
   21 (     14,     0 )       0
   22 (     12,     0 )       0
   23 (      5,     0 )       0
   24 (      2,     0 )       0
   25 (     15,     0 )       0
   26 (     15,     0 )       0
   27 (     16,     0 )       0
   28 (     16,     0 )       0
   29 (     13,     0 )       0
   30 (     14,     0 )       0
   31 (     12,     0 )       0
   32 (     14,     0 )       0
   33 (     14,     0 )       0
   34 (     14,     0 )       0
   35 (     14,     0 )       0
   36 (     14,     0 )       0
   37 (     13,     0 )       0
   38 (     15,     0 )       0
   39 (     15,     0 )       0
   40 (     14,     0 )       0
   41 (     15,     0 )       0
 number of -cosmo- surface points =      525
 molecular surface =    299.264 angstrom**2
 molecular volume  =    163.197 angstrom**3
 G(cav/disp)       =      2.356 kcal/mol
 ...... end of -cosmo- initialization ......


  Caching 1-el integrals 
 
 WARNING : Found     3 linear dependencies 
 S eigenvalue threshold:     1.00000E-05
 Smallest S eigenvalue :     2.44294E-06
 Largest  S eigenvalue :     5.01901E-06
 
   Time after variat. SCF:   9640.3
   Time prior to 1st pass:   9640.3


         Total DFT energy =    -1039.707720548872
      One electron energy =    -4298.797114033044
           Coulomb energy =     1935.114718790695
    Exchange-Corr. energy =     -123.846508541594
 Nuclear repulsion energy =     1446.827005650833

             COSMO energy =        0.994177584237

 Numeric. integr. density =      135.999992577704

     Total iterative time =   3403.8s


                                   COSMO solvation results
                                   -----------------------

                 gas phase energy =     -1039.699379684339
                 sol phase energy =     -1039.707720548872
 (electrostatic) solvation energy =         0.008340864533 (    5.23 kcal/mol)
 Line search: 
     step= 1.00 grad=-3.4D-03 hess= 1.6D-03 energy=  -1039.707721 mode=accept  
 new step= 1.00                   predicted energy=  -1039.707721
  no constraints, skipping   0.000000000000000E+000
  no constraints, skipping   0.000000000000000E+000
  no constraints, skipping   0.000000000000000E+000
  no constraints, skipping   0.000000000000000E+000
  no constraints, skipping   0.000000000000000E+000
  no constraints, skipping   0.000000000000000E+000
  no constraints, skipping   0.000000000000000E+000
  no constraints, skipping   0.000000000000000E+000

          --------
          Step   1
          --------
 
                                 NWChem DFT Module
                                 -----------------
 
 
                                       der7
 
 
 
 
 solvent parameters
 solvname_short: chcl3   
 solvname_long:  chloroform                         
 dielec:        4.7113
 dielecinf:     2.0906

          ---------------
          -cosmo- solvent
          ---------------
 Cosmo: York-Karplus, doi: 10.1021/jp992097l
 dielectric constant -eps-     =   4.71
 screen = (eps-1)/(eps    )    =   0.78774
 surface charge correction     = lagrangian
 -lineq- algorithm             =   0
 -bem- low  level              =   2
 -bem- from -octahedral-
 gaussian surface charge width =   0.98000
 degree of switching           =   1.00000
 switching function tolerance  =   0.00010
 atomic radii = 
 --------------
    1  8.000  1.720
    2 15.000  2.106
    3  8.000  1.720
    4  8.000  1.720
    5  6.000  2.000
    6  6.000  2.000
    7  6.000  2.000
    8  6.000  2.000
    9  6.000  2.000
   10  6.000  2.000
   11  1.000  1.300
   12  1.000  1.300
   13  1.000  1.300
   14  1.000  1.300
   15  1.000  1.300
   16  1.000  1.300
   17  1.000  1.300
   18  1.000  1.300
   19  1.000  1.300
   20  1.000  1.300
   21  1.000  1.300
   22  1.000  1.300
   23  6.000  2.000
   24  6.000  2.000
   25  1.000  1.300
   26  1.000  1.300
   27  6.000  2.000
   28  6.000  2.000
   29  1.000  1.300
   30  6.000  2.000
   31  1.000  1.300
   32  6.000  2.000
   33  1.000  1.300
   34  1.000  1.300
   35  1.000  1.300
   36  1.000  1.300
   37  1.000  1.300
   38  1.000  1.300
   39  1.000  1.300
   40  1.000  1.300
   41  1.000  1.300

 solvent accessible surface
 --------------------------

 ---------- ATOMIC COORDINATES (A.U.) ------------ VDWR(ANG.) --
     1   -0.93456933    1.64253795   -0.25467856     1.720
     2   -1.16735539   -0.61911811    1.84219459     2.106
     3    1.57450658   -2.07781145    1.75156789     1.720
     4   -2.56748315   -2.79490852    0.10414013     1.720
     5    1.74931213   -4.02448166   -0.21289427     2.000
     6   -1.03025749   -5.04287978   -0.35412831     2.000
     7    2.65720100   -2.80063831   -2.66969594     2.000
     8    3.68075643   -5.96475058    0.66798305     2.000
     9   -1.65327092   -6.95107813    1.72541496     2.000
    10   -1.76531666   -6.11155197   -2.92195450     2.000
    11    3.02334841   -4.23068398   -4.10408314     1.300
    12    1.29829383   -1.45196829   -3.41063019     1.300
    13    4.41941877   -1.80102833   -2.30274235     1.300
    14    3.25936328   -6.65728890    2.55504518     1.300
    15    3.73112169   -7.56631607   -0.62687407     1.300
    16    5.55546900   -5.11362065    0.69414890     1.300
    17   -0.71500524   -8.75275759    1.39679972     1.300
    18   -1.10221438   -6.25581477    3.58284638     1.300
    19   -3.68554732   -7.27961860    1.73773310     1.300
    20   -0.55587992   -7.70885136   -3.40377508     1.300
    21   -3.71093122   -6.78305621   -2.86338835     1.300
    22   -1.61470083   -4.70024831   -4.40599039     1.300
    23   -1.52908238    4.23315555    0.44601010     2.000
    24    0.81264010    5.94980551    0.01664118     2.000
    25   -5.43972872    3.67189088   -0.48807426     1.300
    26   -3.63211007    4.86310972   -3.01834352     1.300
    27    1.64454517    5.94644624   -2.76415211     2.000
    28    2.99984921    4.98743624    1.66824084     2.000
    29   -4.52384865    6.87148361   -0.50025868     1.300
    30   -3.91573791    4.96679274   -0.98187441     2.000
    31   -1.93660315    4.27465698    2.47545773     1.300
    32    0.16192878    8.65869344    0.84121841     2.000
    33    4.63630351    6.22696659    1.47612441     1.300
    34    3.57775022    3.08720810    1.13358120     1.300
    35    2.46796403    4.95363425    3.66266112     1.300
    36    0.20335075    6.74425893   -4.00177197     1.300
    37    2.06565441    4.03878818   -3.41456682     1.300
    38    3.35061218    7.08294317   -2.99053431     1.300
    39    1.85166145    9.83795171    0.77248844     1.300
    40   -0.55320641    8.70535121    2.77699230     1.300
    41   -1.24848662    9.52696995   -0.38209252     1.300
 number of segments per atom =         32
 number of   points per atom =         32
 atom (   nspa,  nppa )
 ----------------------
    1 (      9,     0 )       0
    2 (     12,     0 )       0
    3 (     13,     0 )       0
    4 (     10,     0 )       0
    5 (      1,     0 )       0
    6 (      0,     0 )       0
    7 (     16,     0 )       0
    8 (     17,     0 )       0
    9 (     14,     0 )       0
   10 (     18,     0 )       0
   11 (     14,     0 )       0
   12 (     14,     0 )       0
   13 (     15,     0 )       0
   14 (     12,     0 )       0
   15 (     13,     0 )       0
   16 (     15,     0 )       0
   17 (     13,     0 )       0
   18 (     13,     0 )       0
   19 (     15,     0 )       0
   20 (     15,     0 )       0
   21 (     14,     0 )       0
   22 (     12,     0 )       0
   23 (      5,     0 )       0
   24 (      2,     0 )       0
   25 (     15,     0 )       0
   26 (     15,     0 )       0
   27 (     16,     0 )       0
   28 (     16,     0 )       0
   29 (     13,     0 )       0
   30 (     14,     0 )       0
   31 (     12,     0 )       0
   32 (     14,     0 )       0
   33 (     14,     0 )       0
   34 (     14,     0 )       0
   35 (     14,     0 )       0
   36 (     14,     0 )       0
   37 (     13,     0 )       0
   38 (     15,     0 )       0
   39 (     15,     0 )       0
   40 (     14,     0 )       0
   41 (     15,     0 )       0
 number of -cosmo- surface points =      525
 molecular surface =    299.264 angstrom**2
 molecular volume  =    163.197 angstrom**3
 G(cav/disp)       =      2.356 kcal/mol
 ...... end of -cosmo- initialization ......



  The DFT is already converged 

         Total DFT energy =  -1039.707720548872



                         DFT ENERGY GRADIENTS

    atom               coordinates                        gradient
                 x          y          z           x          y          z
   1 O      -0.934569   1.642538  -0.254679   -0.001884  -0.000487   0.004213
   2 P      -1.167355  -0.619118   1.842195    0.001540   0.000454  -0.006338
   3 O       1.574507  -2.077811   1.751568   -0.004351  -0.000980   0.000238
   4 O      -2.567483  -2.794909   0.104140    0.003066   0.000319   0.003136
   5 C       1.749312  -4.024482  -0.212894    0.001623   0.001568   0.001725
   6 C      -1.030257  -5.042880  -0.354128   -0.002427   0.001540  -0.000475
   7 C       2.657201  -2.800638  -2.669696   -0.000460  -0.000988  -0.000098
   8 C       3.680756  -5.964751   0.667983   -0.000276   0.000247  -0.001404
   9 C      -1.653271  -6.951078   1.725415    0.000499   0.000003  -0.001039
  10 C      -1.765317  -6.111552  -2.921954    0.000986  -0.000624   0.000764
  11 H       3.023348  -4.230684  -4.104083    0.000135   0.000238  -0.000150
  12 H       1.298294  -1.451968  -3.410630    0.000389   0.000108   0.000335
  13 H       4.419419  -1.801028  -2.302742   -0.000034   0.000191  -0.000128
  14 H       3.259363  -6.657289   2.555045    0.000124  -0.000024  -0.000195
  15 H       3.731122  -7.566316  -0.626874    0.000255  -0.000225   0.000154
  16 H       5.555469  -5.113621   0.694149    0.000161  -0.000147   0.000003
  17 H      -0.715005  -8.752758   1.396800   -0.000204  -0.000026   0.000255
  18 H      -1.102214  -6.255815   3.582846   -0.000142  -0.000090   0.000091
  19 H      -3.685547  -7.279619   1.737733   -0.000072  -0.000110   0.000172
  20 H      -0.555880  -7.708851  -3.403775   -0.000245  -0.000161  -0.000332
  21 H      -3.710931  -6.783056  -2.863388   -0.000025  -0.000156  -0.000155
  22 H      -1.614701  -4.700248  -4.405990   -0.000006  -0.000173   0.000076
  23 C      -1.529082   4.233156   0.446010    0.001365  -0.002446  -0.002356
  24 C       0.812640   5.949806   0.016641   -0.000011   0.002026   0.000654
  25 H      -5.439729   3.671891  -0.488074   -0.000214  -0.000012  -0.000220
  26 H      -3.632110   4.863110  -3.018344   -0.000122  -0.000132   0.000048
  27 C       1.644545   5.946446  -2.764152   -0.000235  -0.000409   0.001025
  28 C       2.999849   4.987436   1.668241   -0.000673   0.000099  -0.001116
  29 H      -4.523849   6.871484  -0.500259   -0.000244  -0.000183  -0.000088
  30 C      -3.915738   4.966793  -0.981874    0.000830   0.000348   0.000645
  31 H      -1.936603   4.274657   2.475458   -0.000123   0.000609   0.000641
  32 C       0.161929   8.658693   0.841218    0.000498  -0.001415  -0.000457
  33 H       4.636304   6.226967   1.476124    0.000175  -0.000068   0.000166
  34 H       3.577750   3.087208   1.133581   -0.000020   0.000212   0.000225
  35 H       2.467964   4.953634   3.662661    0.000108  -0.000003   0.000138
  36 H       0.203351   6.744259  -4.001772    0.000241   0.000042  -0.000138
  37 H       2.065654   4.038788  -3.414567   -0.000192   0.000089  -0.000064
  38 H       3.350612   7.082943  -2.990534    0.000025   0.000027  -0.000152
  39 H       1.851661   9.837952   0.772488   -0.000098   0.000354   0.000064
  40 H      -0.553206   8.705351   2.776992   -0.000077   0.000151   0.000067
  41 H      -1.248487   9.526970  -0.382093    0.000117   0.000233   0.000067
 
  no constraints, skipping   0.000000000000000E+000

  Step       Energy      Delta E   Gmax     Grms     Xrms     Xmax   Walltime
  ---- ---------------- -------- -------- -------- -------- -------- --------
@    1   -1039.70772055 -1.8D-03  0.00294  0.00039  0.06068  0.15306  13648.0
                                                                    

  no constraints, skipping   0.000000000000000E+000
  no constraints, skipping   0.000000000000000E+000
  no constraints, skipping   0.000000000000000E+000
  no constraints, skipping   0.000000000000000E+000
  no constraints, skipping   0.000000000000000E+000
  no constraints, skipping   0.000000000000000E+000
  no constraints, skipping   0.000000000000000E+000
  no constraints, skipping   0.000000000000000E+000
 
                                 NWChem DFT Module
                                 -----------------
 
 
                                       der7
 
 
 
 
 solvent parameters
 solvname_short: chcl3   
 solvname_long:  chloroform                         
 dielec:        4.7113
 dielecinf:     2.0906

          ---------------
          -cosmo- solvent
          ---------------
 Cosmo: York-Karplus, doi: 10.1021/jp992097l
 dielectric constant -eps-     =   4.71
 screen = (eps-1)/(eps    )    =   0.78774
 surface charge correction     = lagrangian
 -lineq- algorithm             =   0
 -bem- low  level              =   2
 -bem- from -octahedral-
 gaussian surface charge width =   0.98000
 degree of switching           =   1.00000
 switching function tolerance  =   0.00010
 atomic radii = 
 --------------
    1  8.000  1.720
    2 15.000  2.106
    3  8.000  1.720
    4  8.000  1.720
    5  6.000  2.000
    6  6.000  2.000
    7  6.000  2.000
    8  6.000  2.000
    9  6.000  2.000
   10  6.000  2.000
   11  1.000  1.300
   12  1.000  1.300
   13  1.000  1.300
   14  1.000  1.300
   15  1.000  1.300
   16  1.000  1.300
   17  1.000  1.300
   18  1.000  1.300
   19  1.000  1.300
   20  1.000  1.300
   21  1.000  1.300
   22  1.000  1.300
   23  6.000  2.000
   24  6.000  2.000
   25  1.000  1.300
   26  1.000  1.300
   27  6.000  2.000
   28  6.000  2.000
   29  1.000  1.300
   30  6.000  2.000
   31  1.000  1.300
   32  6.000  2.000
   33  1.000  1.300
   34  1.000  1.300
   35  1.000  1.300
   36  1.000  1.300
   37  1.000  1.300
   38  1.000  1.300
   39  1.000  1.300
   40  1.000  1.300
   41  1.000  1.300

 solvent accessible surface
 --------------------------

 ---------- ATOMIC COORDINATES (A.U.) ------------ VDWR(ANG.) --
     1   -0.91961825    1.64063889   -0.28243544     1.720
     2   -1.15147287   -0.61180304    1.83717715     2.106
     3    1.59866142   -2.07050652    1.74227559     1.720
     4   -2.56635210   -2.78600528    0.09488253     1.720
     5    1.75597103   -4.03039456   -0.21728377     2.000
     6   -1.02726859   -5.04043183   -0.35417511     2.000
     7    2.66409726   -2.82015982   -2.68271189     2.000
     8    3.67920912   -5.97311980    0.68095375     2.000
     9   -1.65444362   -6.93852847    1.73587936     2.000
    10   -1.76890163   -6.10888022   -2.92177925     2.000
    11    3.02151081   -4.26200289   -4.10730965     1.300
    12    1.30813094   -1.47190269   -3.43141723     1.300
    13    4.43082218   -1.82645579   -2.32296696     1.300
    14    3.25229166   -6.64983925    2.57290883     1.300
    15    3.72106707   -7.58191623   -0.60445940     1.300
    16    5.55639543   -5.12832110    0.70243381     1.300
    17   -0.71927357   -8.74272517    1.41133341     1.300
    18   -1.09935744   -6.23604979    3.58905073     1.300
    19   -3.68727587   -7.26096211    1.74931163     1.300
    20   -0.56197566   -7.70912841   -3.39852984     1.300
    21   -3.71637124   -6.77351852   -2.85949174     1.300
    22   -1.61512000   -4.69941949   -4.40769925     1.300
    23   -1.52870988    4.22920502    0.43454401     2.000
    24    0.81093756    5.95083761    0.01493956     2.000
    25   -5.43834358    3.66132366   -0.49880634     1.300
    26   -3.63889839    4.87661986   -3.02525302     1.300
    27    1.64507035    5.97108749   -2.76848798     2.000
    28    3.00222120    4.98150291    1.66310693     2.000
    29   -4.53148489    6.86494734   -0.49122980     1.300
    30   -3.92074016    4.96478113   -0.98780946     2.000
    31   -1.93512524    4.25377743    2.46195385     1.300
    32    0.15120321    8.65542789    0.85908956     2.000
    33    4.63397662    6.22760774    1.47828207     1.300
    34    3.58503303    3.08616956    1.11466649     1.300
    35    2.46882314    4.93306027    3.65631198     1.300
    36    0.20048837    6.77452789   -3.99849671     1.300
    37    2.07298254    4.06998829   -3.43372998     1.300
    38    3.34779851    7.11419399   -2.98361196     1.300
    39    1.83944740    9.83629240    0.79801239     1.300
    40   -0.56403185    8.68547669    2.79470655     1.300
    41   -1.26165883    9.52621431   -0.35934953     1.300
 number of segments per atom =         32
 number of   points per atom =         32
 atom (   nspa,  nppa )
 ----------------------
    1 (      9,     0 )       0
    2 (     12,     0 )       0
    3 (     13,     0 )       0
    4 (     11,     0 )       0
    5 (      0,     0 )       0
    6 (      0,     0 )       0
    7 (     16,     0 )       0
    8 (     17,     0 )       0
    9 (     13,     0 )       0
   10 (     18,     0 )       0
   11 (     14,     0 )       0
   12 (     14,     0 )       0
   13 (     15,     0 )       0
   14 (     12,     0 )       0
   15 (     14,     0 )       0
   16 (     15,     0 )       0
   17 (     13,     0 )       0
   18 (     13,     0 )       0
   19 (     15,     0 )       0
   20 (     15,     0 )       0
   21 (     14,     0 )       0
   22 (     12,     0 )       0
   23 (      5,     0 )       0
   24 (      2,     0 )       0
   25 (     15,     0 )       0
   26 (     15,     0 )       0
   27 (     16,     0 )       0
[...]
   23 Stretch                 10    22                       1.08673   -0.00156
   24 Stretch                 23    24                       1.55130    0.01007
   25 Stretch                 23    30                       1.52272    0.00847
   26 Stretch                 23    31                       1.09413   -0.00433
   27 Stretch                 24    27                       1.53717    0.01050
   28 Stretch                 24    28                       1.53877    0.01073
   29 Stretch                 24    32                       1.54023    0.01188
   30 Stretch                 25    30                       1.08966   -0.00119
   31 Stretch                 26    30                       1.08932   -0.00139
   32 Stretch                 27    36                       1.09028   -0.00141
   33 Stretch                 27    37                       1.08995   -0.00121
   34 Stretch                 27    38                       1.09120   -0.00131
   35 Stretch                 28    33                       1.09078   -0.00143
   36 Stretch                 28    34                       1.08901   -0.00156
   37 Stretch                 28    35                       1.09206   -0.00172
   38 Stretch                 29    30                       1.08860   -0.00119
   39 Stretch                 32    39                       1.09066   -0.00147
   40 Stretch                 32    40                       1.09211   -0.00134
   41 Stretch                 32    41                       1.08954   -0.00148
   42 Bend                     1     2     3               103.40997   -0.79779
   43 Bend                     1     2     4                99.62153    0.49732
   44 Bend                     1    23    24               109.58185    0.25883
   45 Bend                     1    23    30               107.11220   -0.41537
   46 Bend                     1    23    31               107.85609   -0.34751
   47 Bend                     2     1    23               118.95604   -0.72697
   48 Bend                     2     3     5               113.89373    0.35443
   49 Bend                     2     4     6               113.66663   -0.29957
   50 Bend                     3     2     4                93.33241    0.02661
   51 Bend                     3     5     6               102.99874    0.30991
   52 Bend                     3     5     7               108.47843   -0.32397
   53 Bend                     3     5     8               106.90652   -0.48723
   54 Bend                     4     6     5               103.68453    0.05039
   55 Bend                     4     6     9               107.37728   -0.15646
   56 Bend                     4     6    10               107.35509   -0.48895
   57 Bend                     5     6     9               113.37548    0.37293
   58 Bend                     5     6    10               114.22378    0.19840
   59 Bend                     5     7    11               110.58248   -0.09790
   60 Bend                     5     7    12               112.06167    0.27686
   61 Bend                     5     7    13               108.80946    0.08356
   62 Bend                     5     8    14               111.66168   -0.01276
   63 Bend                     5     8    15               110.24849   -0.03836
   64 Bend                     5     8    16               109.59238   -0.00445
   65 Bend                     6     5     7               113.66903    0.39382
   66 Bend                     6     5     8               114.21038    0.11072
   67 Bend                     6     9    17               111.25200   -0.04798
   68 Bend                     6     9    18               111.60911    0.14764
   69 Bend                     6     9    19               108.71172   -0.00842
   70 Bend                     6    10    20               110.19047   -0.10708
   71 Bend                     6    10    21               109.57960   -0.03933
   72 Bend                     6    10    22               111.66979    0.09373
   73 Bend                     7     5     8               109.98300   -0.07010
   74 Bend                     9     6    10               110.21318   -0.04963
   75 Bend                    11     7    12               108.75460   -0.31285
   76 Bend                    11     7    13               108.06667   -0.10182
   77 Bend                    12     7    13               108.46289    0.14669
   78 Bend                    14     8    15               108.82514    0.07526
   79 Bend                    14     8    16               108.45220   -0.01438
   80 Bend                    15     8    16               107.96902   -0.00429
   81 Bend                    17     9    18               108.56340   -0.09803
   82 Bend                    17     9    19               108.23133   -0.02742
   83 Bend                    18     9    19               108.37496    0.03195
   84 Bend                    20    10    21               108.14936    0.16298
   85 Bend                    20    10    22               108.76560   -0.02133
   86 Bend                    21    10    22               108.40030   -0.08540
   87 Bend                    23    24    27               111.81840    0.40165
   88 Bend                    23    24    28               108.96440    0.25288
   89 Bend                    23    24    32               108.80939   -0.26191
   90 Bend                    23    30    25               109.47193   -0.02919
   91 Bend                    23    30    26               111.38348    0.28638
   92 Bend                    23    30    29               111.23240   -0.11814
   93 Bend                    24    23    30               116.33495    0.44820
   94 Bend                    24    23    31               107.04290    0.06570
   95 Bend                    24    27    36               111.89034    0.04026
   96 Bend                    24    27    37               111.26587    0.30030
   97 Bend                    24    27    38               109.85048   -0.02801
   98 Bend                    24    28    33               110.08440   -0.04687
   99 Bend                    24    28    34               111.62664    0.17094
  100 Bend                    24    28    35               111.07910    0.03627
  101 Bend                    24    32    39               109.75429   -0.04888
  102 Bend                    24    32    40               111.28676   -0.01754
  103 Bend                    24    32    41               112.08150    0.01376
  104 Bend                    25    30    26               108.09499    0.07342
  105 Bend                    25    30    29               107.97882   -0.00612
  106 Bend                    26    30    29               108.56649   -0.20957
  107 Bend                    27    24    28               109.27372    0.00411
  108 Bend                    27    24    32               109.57028   -0.18182
  109 Bend                    28    24    32               108.33620   -0.22974
  110 Bend                    30    23    31               108.64151   -0.06390
  111 Bend                    33    28    34               107.97690   -0.17285
  112 Bend                    33    28    35               107.85222    0.03039
  113 Bend                    34    28    35               108.08552   -0.02731
  114 Bend                    36    27    37               108.27471   -0.07729
  115 Bend                    36    27    38               107.54742   -0.01765
  116 Bend                    37    27    38               107.85471   -0.23855
  117 Bend                    39    32    40               107.71193    0.00342
  118 Bend                    39    32    41               107.67968    0.10204
  119 Bend                    40    32    41               108.16089   -0.04900
  120 Torsion                  1     2     3     5         -87.89562   -3.53416
  121 Torsion                  1     2     4     6         115.53949    1.94839
  122 Torsion                  1    23    24    27          60.83463    0.53219
  123 Torsion                  1    23    24    28         -60.06454    0.10555
  124 Torsion                  1    23    24    32        -177.99893    0.38630
  125 Torsion                  1    23    30    25          58.98409    0.07943
  126 Torsion                  1    23    30    26         -60.50343   -0.17179
  127 Torsion                  1    23    30    29         178.23285   -0.02078
  128 Torsion                  2     1    23    24         120.11821   -0.65580
  129 Torsion                  2     1    23    30        -112.85567   -0.20835
  130 Torsion                  2     1    23    31           3.92380   -0.68033
  131 Torsion                  2     3     5     6         -30.33770    2.34303
  132 Torsion                  2     3     5     7          90.42944    2.80983
  133 Torsion                  2     3     5     8        -151.00483    2.28215
  134 Torsion                  2     4     6     5         -29.41743   -1.75353
  135 Torsion                  2     4     6     9          90.85247   -1.37320
  136 Torsion                  2     4     6    10        -150.65085   -1.77528
  137 Torsion                  3     2     1    23        -135.38806   -8.04659
  138 Torsion                  3     2     4     6          11.32838    2.70503
  139 Torsion                  3     5     6     4          35.13969   -0.38249
  140 Torsion                  3     5     6     9         -80.97158   -0.40563
  141 Torsion                  3     5     6    10         151.63977   -0.84073
  142 Torsion                  3     5     7    11         172.78232   -0.52957
  143 Torsion                  3     5     7    12         -65.69983   -0.80791
  144 Torsion                  3     5     7    13          54.23611   -0.39849
  145 Torsion                  3     5     8    14          52.89232    0.25817
  146 Torsion                  3     5     8    15         173.99570    0.31871
  147 Torsion                  3     5     8    16         -67.29718    0.28737
  148 Torsion                  4     2     1    23         128.81357   -8.05340
  149 Torsion                  4     2     3     5          12.82366   -3.09585
  150 Torsion                  4     6     5     7         -82.01176   -0.37284
  151 Torsion                  4     6     5     8         150.67310   -0.72312
  152 Torsion                  4     6     9    17         173.95624   -0.33105
  153 Torsion                  4     6     9    18         -64.61348   -0.38730
  154 Torsion                  4     6     9    19          54.86869   -0.26292
  155 Torsion                  4     6    10    20         175.42459   -0.01271
  156 Torsion                  4     6    10    21         -65.69017    0.09787
  157 Torsion                  4     6    10    22          54.43100    0.02490
  158 Torsion                  5     6     9    17         -72.13262   -0.16626
  159 Torsion                  5     6     9    18          49.29765   -0.22251
  160 Torsion                  5     6     9    19         168.77983   -0.09813
  161 Torsion                  5     6    10    20          61.06895    0.12693
  162 Torsion                  5     6    10    21         179.95419    0.23751
  163 Torsion                  5     6    10    22         -59.92464    0.16455
  164 Torsion                  6     5     7    11         -73.30045   -0.13128
  165 Torsion                  6     5     7    12          48.21741   -0.40962
  166 Torsion                  6     5     7    13         168.15335   -0.00020
  167 Torsion                  6     5     8    14         -60.33791    0.12481
  168 Torsion                  6     5     8    15          60.76547    0.18535
  169 Torsion                  6     5     8    16         179.47258    0.15402
  170 Torsion                  7     5     6     9         161.87697   -0.39598
  171 Torsion                  7     5     6    10          34.48832   -0.83108
  172 Torsion                  7     5     8    14         170.47397   -0.44752
  173 Torsion                  7     5     8    15         -68.42265   -0.38698
  174 Torsion                  7     5     8    16          50.28447   -0.41832
  175 Torsion                  8     5     6     9          34.56183   -0.74626
  176 Torsion                  8     5     6    10         -92.82682   -1.18137
  177 Torsion                  8     5     7    11          56.18095    0.28512
  178 Torsion                  8     5     7    12         177.69881    0.00678
  179 Torsion                  8     5     7    13         -62.36526    0.41620
  180 Torsion                  9     6    10    20         -67.92728   -0.50758
  181 Torsion                  9     6    10    21          50.95796   -0.39700
  182 Torsion                  9     6    10    22         171.07912   -0.46997
  183 Torsion                 10     6     9    17          57.32194    0.36989
  184 Torsion                 10     6     9    18         178.75222    0.31364
  185 Torsion                 10     6     9    19         -61.76560    0.43802
  186 Torsion                 23    24    27    36          62.74235   -1.07270
  187 Torsion                 23    24    27    37         -58.52363   -1.21272
  188 Torsion                 23    24    27    38        -177.88383   -1.08764
  189 Torsion                 23    24    28    33        -176.02859    1.03123
  190 Torsion                 23    24    28    34          64.07286    1.16851
  191 Torsion                 23    24    28    35         -56.63827    1.06184
  192 Torsion                 23    24    32    39         173.10632    0.04863
  193 Torsion                 23    24    32    40          53.97300    0.08702
  194 Torsion                 23    24    32    41         -67.29536    0.15293
  195 Torsion                 24    23    30    25        -178.08133    0.40018
  196 Torsion                 24    23    30    26          62.43115    0.14895
  197 Torsion                 24    23    30    29         -58.83257    0.29997
  198 Torsion                 25    30    23    31         -57.27641    0.74296
  199 Torsion                 26    30    23    31        -176.76393    0.49174
  200 Torsion                 27    24    23    30         -60.80358    0.55562
  201 Torsion                 27    24    23    31         177.54281    0.29263
  202 Torsion                 27    24    28    33          61.52615    0.37664
  203 Torsion                 27    24    28    34         -58.37240    0.51392
  204 Torsion                 27    24    28    35        -179.08353    0.40725
  205 Torsion                 27    24    32    39         -64.36011    0.26213
  206 Torsion                 27    24    32    40         176.50657    0.30053
  207 Torsion                 27    24    32    41          55.23821    0.36643
  208 Torsion                 28    24    23    30         178.29725    0.12897
  209 Torsion                 28    24    23    31          56.64364   -0.13401
  210 Torsion                 28    24    27    36        -176.53828   -0.49729
  211 Torsion                 28    24    27    37          62.19573   -0.63732
  212 Torsion                 28    24    27    38         -57.16446   -0.51223
  213 Torsion                 28    24    32    39          54.77539    0.02417
  214 Torsion                 28    24    32    40         -64.35793    0.06257
  215 Torsion                 28    24    32    41         174.37370    0.12847
  216 Torsion                 29    30    23    31          61.97235    0.64275
  217 Torsion                 30    23    24    32          60.36286    0.40972
  218 Torsion                 31    23    24    32         -61.29075    0.14674
  219 Torsion                 32    24    27    36         -57.98240   -0.88260
  220 Torsion                 32    24    27    37        -179.24839   -1.02262
  221 Torsion                 32    24    27    38          61.39142   -0.89754
  222 Torsion                 32    24    28    33         -57.79622    0.72960
  223 Torsion                 32    24    28    34        -177.69478    0.86688
  224 Torsion                 32    24    28    35          61.59409    0.76021
 
 
 
                                NWChem Input Module
                                -------------------
 
 
 
 
                                     CITATION
                                     --------
                Please cite the following reference when publishing
                           results obtained with NWChem:
 
          E. Apra, E. J. Bylaska, W. A. de Jong, N. Govind, K. Kowalski,
       T. P. Straatsma, M. Valiev, H. J. J. van Dam, Y. Alexeev, J. Anchell,
       V. Anisimov, F. W. Aquino, R. Atta-Fynn, J. Autschbach, N. P. Bauman,
     J. C. Becca, D. E. Bernholdt, K. Bhaskaran-Nair, S. Bogatko, P. Borowski,
         J. Boschen, J. Brabec, A. Bruner, E. Cauet, Y. Chen, G. N. Chuev,
      C. J. Cramer, J. Daily, M. J. O. Deegan, T. H. Dunning Jr., M. Dupuis,
   K. G. Dyall, G. I. Fann, S. A. Fischer, A. Fonari, H. Fruchtl, L. Gagliardi,
      J. Garza, N. Gawande, S. Ghosh, K. Glaesemann, A. W. Gotz, J. Hammond,
       V. Helms, E. D. Hermes, K. Hirao, S. Hirata, M. Jacquelin, L. Jensen,
   B. G. Johnson, H. Jonsson, R. A. Kendall, M. Klemm, R. Kobayashi, V. Konkov,
      S. Krishnamoorthy, M. Krishnan, Z. Lin, R. D. Lins, R. J. Littlefield,
      A. J. Logsdail, K. Lopata, W. Ma, A. V. Marenich, J. Martin del Campo,
   D. Mejia-Rodriguez, J. E. Moore, J. M. Mullin, T. Nakajima, D. R. Nascimento,
    J. A. Nichols, P. J. Nichols, J. Nieplocha, A. Otero-de-la-Roza, B. Palmer,
    A. Panyala, T. Pirojsirikul, B. Peng, R. Peverati, J. Pittner, L. Pollack,
   R. M. Richard, P. Sadayappan, G. C. Schatz, W. A. Shelton, D. W. Silverstein,
   D. M. A. Smith, T. A. Soares, D. Song, M. Swart, H. L. Taylor, G. S. Thomas,
            V. Tipparaju, D. G. Truhlar, K. Tsemekhman, T. Van Voorhis,
      A. Vazquez-Mayagoitia, P. Verma, O. Villa, A. Vishnu, K. D. Vogiatzis,
        D. Wang, J. H. Weare, M. J. Williamson, T. L. Windus, K. Wolinski,
        A. T. Wong, Q. Wu, C. Yang, Q. Yu, M. Zacharias, Z. Zhang, Y. Zhao,
                                and R. J. Harrison
                        "NWChem: Past, present, and future
                         J. Chem. Phys. 152, 184102 (2020)
                               doi:10.1063/5.0004997
 
                                      AUTHORS
                                      -------
     E. Apra, E. J. Bylaska, N. Govind, K. Kowalski, M. Valiev, W. A. de Jong,
      T. P. Straatsma, H. J. J. van Dam, D. Wang, T. L. Windus, N. P. Bauman,
       A. Panyala, J. Hammond, J. Autschbach, K. Bhaskaran-Nair, J. Brabec,
    K. Lopata, S. A. Fischer, S. Krishnamoorthy, M. Jacquelin, W. Ma, M. Klemm,
       O. Villa, Y. Chen, V. Anisimov, F. Aquino, S. Hirata, M. T. Hackler,
           Eric Hermes, L. Jensen, J. E. Moore, J. C. Becca, V. Konjkov,
            D. Mejia-Rodriguez, T. Risthaus, M. Malagoli, A. Marenich,
   A. Otero-de-la-Roza, J. Mullin, P. Nichols, R. Peverati, J. Pittner, Y. Zhao,
        P.-D. Fan, A. Fonari, M. J. Williamson, R. J. Harrison, J. R. Rehr,
      M. Dupuis, D. Silverstein, D. M. A. Smith, J. Nieplocha, V. Tipparaju,
      M. Krishnan, B. E. Van Kuiken, A. Vazquez-Mayagoitia, M. Swart, Q. Wu,
   T. Van Voorhis, A. A. Auer, M. Nooijen, L. D. Crosby, E. Brown, G. Cisneros,
     G. I. Fann, H. Fruchtl, J. Garza, K. Hirao, R. A. Kendall, J. A. Nichols,
       K. Tsemekhman, K. Wolinski, J. Anchell, D. E. Bernholdt, P. Borowski,
       T. Clark, D. Clerc, H. Dachsel, M. J. O. Deegan, K. Dyall, D. Elwood,
      E. Glendening, M. Gutowski, A. C. Hess, J. Jaffe, B. G. Johnson, J. Ju,
        R. Kobayashi, R. Kutteh, Z. Lin, R. Littlefield, X. Long, B. Meng,
      T. Nakajima, S. Niu, L. Pollack, M. Rosing, K. Glaesemann, G. Sandrone,
      M. Stave, H. Taylor, G. Thomas, J. H. van Lenthe, A. T. Wong, Z. Zhang.

 Total times  cpu:   218502.6s     wall:   222453.8s
