

 Parallel Execution: Process Information
 ==============================================================================
 Rank   Node Name                              NodeID   MyNodeRank  NodeMaster
    0   adf1                                      0          0          0
    1   adf1                                      0          1         -1
    2   adf1                                      0          2         -1
    3   adf1                                      0          3         -1
    4   adf1                                      0          4         -1
    5   adf1                                      0          5         -1
    6   adf1                                      0          6         -1
    7   adf1                                      0          7         -1
    8   adf1                                      0          8         -1
    9   adf1                                      0          9         -1
   10   adf1                                      0         10         -1
   11   adf1                                      0         11         -1
 ==============================================================================


May use up to 22932MB of RAM as shared memory on node 0

 *******************************************************************************
 *                                                                             *
 *  --------------------------------                                           *
 *   Amsterdam Modeling Suite (AMS)              2020.202                      *
 *  --------------------------------                                           *
 *                                               r90167 2020-12-05             *
 *                                                                             *
 *                                                                             *
 *                              =================                              *
 *                              |               |                              *
 *                              |     A M S     |                              *
 *                              |               |                              *
 *                              =================                              *
 *                                                                             *
 *                                                                             *
 *   Online information and documentation:  https://www.scm.com/support/       *
 *   E-mail:  support@scm.com   info@scm.com                                   *
 *                                                                             *
 *   Scientific publications using AMS results must be properly referenced     *
 *   See the User Manuals (or the web site) for recommended citations          *
 *   The terms and conditions of the End User License Agreement apply to       *
 *   the use of AMS, https://www.scm.com/license-terms/                        *
 *                                                                             *
 **********************  x86_64_linux_intel / intelmpi  ************************
 
 Licensed to: Dr. Miroslav Ilias / Matej Bel University, Department Chemistry, Fac. Natural Sciences / Banska Bystrica / SLOVAKIA
 SCM User ID: u17848
  
 AMS 2020.202  RunTime: Mar06-2021 02:09:41  Nodes: 1  Procs: 12

 AMS jobname: ams
 AMS jobid  : 692747465

 Start   directory: /home/milias/Work/projects/open-collection/theoretical_chemistry/projects/nmr_diplomovky/reference_compounds/tetramethylsilane/ams/pbe0_tz2p_good/cosmo-acetone/tmp.milias.23206.0.noindex/
 Results directory: /home/milias/Work/projects/open-collection/theoretical_chemistry/projects/nmr_diplomovky/reference_compounds/tetramethylsilane/ams/pbe0_tz2p_good/cosmo-acetone/TMS.geopt_freq_nmrshield_pbe0_tz2p_good_cosmo-acetone.results/
 Scratch directory: /tmp/amstmp_ams_kid0.692747465/


 Communication costs MPI_COMM_WORLD:      2.942 usec per message,   0.0272 usec per 8-byte item
 Communication costs for intra-node:      2.843 usec per message,   0.0273 usec per 8-byte item

 RNG seed: 1067318118 -1030191365 -1142653100 -1988618128 -2083526370 528589594 -1695678925 128955414



                       *********************************************************************
                       *  ADF 2020.202  RunTime: Mar06-2021 02:09:42  Nodes: 1  Procs: 12  *
                       *********************************************************************
  
       ***************************
       *  GEOMETRY OPTIMIZATION  *
       ***************************

Optimization Method                    Quasi Newton
Optimization Coordinates               Delocalized Coordinates
Optimize lattice                       F
 
 ------------------------------------------------------
 Convergence criteria (Hartree,Angstrom)
 ------------------------------------------------------
 Maximum gradient               0.001000000000
 Maximum rms gradient           0.000666666667
 Maximum step allowed           0.010000000000
 Maximum rms step allowed       0.006666666667
 Maximum energy change allowe   0.000170000000
 Maximum stress energy allowe   0.000500000000
 
Initial model Hessian                  Automatic Hessian
 
------------------------------------
Quasi-Newton Optimizer Parameters
------------------------------------
Hessian Update Method                  BFGS
Maximum number of steps                  250
First GDIIS cycle                          0
Maximum GDIIS vectors                      0
Trust radius (bohr)                        0.200000
Trust radius varies                        T
Constraints converged at all steps         T
Use projector                              T
 
 Rigid motions settings for: old optimizer
 Atomic rotations (x,y,z):     T T T
 Atomic translations (x,y,z):  T T T
 Tolerance:                   1.000000000000000E-006
 
--------
Geometry
--------
Atoms
  Index Symbol   x (angstrom)   y (angstrom)   z (angstrom)
      1     Si    -0.00020199     0.00015279     0.00007739       adf.R=1.908
      2      C    -0.92336272    -0.17158832    -1.62390905       adf.R=1.700
      3      C     0.88862560     1.65151281     0.04281985       adf.R=1.700
      4      C     1.25208747    -1.38754578     0.15677717       adf.R=1.700
      5      C    -1.21758545    -0.09224100     1.42420766       adf.R=1.700
      6      H    -1.45026539    -1.12823276    -1.67235321       adf.R=1.350
      7      H    -1.66034068     0.62765651    -1.73860184       adf.R=1.350
      8      H    -0.23367292    -0.12106957    -2.47058328       adf.R=1.350
      9      H     1.60506232     1.72894265    -0.77925557       adf.R=1.350
     10      H     0.17850127     2.47778690    -0.04727073       adf.R=1.350
     11      H     1.43507320     1.77482782     0.98162175       adf.R=1.350
     12      H     1.80399369    -1.30902146     1.09717160       adf.R=1.350
     13      H     0.75750239    -2.36220494     0.13427529       adf.R=1.350
     14      H     1.97382254    -1.35456075    -0.66369384       adf.R=1.350
     15      H    -0.70216414     0.00531641     2.38337427       adf.R=1.350
     16      H    -1.95888608     0.70825589     1.35462627       adf.R=1.350
     17      H    -1.74878911    -1.04768721     1.42041626       adf.R=1.350
 
Total System Charge             0.00000
Bonding info available!
 
 
----------------
ADF Engine Input
----------------
 
 Basis
 Type TZ2P
 Core None
 End
 Save TAPE10
 XC
 Hybrid PBE0
 End
 Relativity
 Level None
 End
 Solvation
 Surf Delley
 Solv name=Acetone cav0=0.0 cav1=0.0067639
 Charged method=CONJ
 C-Mat POT
 SCF VAR ALL
 CSMRSP
 End
 NumericalQuality Good
 

 Title: *** (NO TITLE) ***

 Using automatic Hessian for delocalized coordinates.
 *** GOStep1 ***

 SOLVATION
-------------------------------------------

  The Delley construction of COSMO surface surface is calculated

       Division Level for Surface Triangles (NDIV)                  3
       Final Division Level for Triangles (NFDIV)                   1
       Radius of the Solvent (RSOL)                           3.08000 angstr
  Dielectric Constant (EPSL)                                 20.70000

       COSMO equation is solved iteratively-               conjugate-gradient

       Maximun of Iterations for Charges (NCIX)                  1000
       Criterion for Charge convergence (CCNV)                1.0E-08

  COSMO charges included variationally in SCF

       COSMO included at every SCF cycle

  Geometry-dependent empirical factor                         0.00000

  C-Matrix calculated in cspmtx

  In cspmtx, C-Matrix calculated using fitted potential

-------------------------------------------



 -------------------------------------------
  COSMO surface
  Area             =          529.126
  Volume           =          984.201
  Number of Points =         1215
 -------------------------------------------



 ======================
 RI Hartree-Fock Scheme
 ======================
  
 Fit Set Quality     : GOOD
 Integration Quality : GOOD
 Threshold Quality   : GOOD
 Response Quality    : DEFAULT
 Is Range Separated  :  F
 
 RIHartreeFock Dependency: number of modified vectors:          13
 cosmo_calcen: 0.5 (esolb+esolc) (Hartrees) =   -0.001818

 Solvation energy (screening term,uncorrected) =     -1.140848 kcal/mol

 Solvation energy (dispersion and cavitation terms) =      0.953793 kcal/mol
 Solvation Energy Contributions (Hartrees)
          esola   esolb+esolc
     0.00181806   -0.00363611
 esol last cycle   -0.00181806
  
 Hartree-Fock exchange energy:   -45.3924579906883     
 cosmo_calcen: 0.5 (esolb+esolc) (Hartrees) =   -0.001818

 Solvation energy (screening term,uncorrected) =     -1.140848 kcal/mol

 Solvation energy (dispersion and cavitation terms) =      0.953793 kcal/mol
 Solvation Energy Contributions (Hartrees)
          esola   esolb+esolc
     0.00181806   -0.00363611
 esol last cycle   -0.00181806
  pauli hf:                             -1.799235921656768        -48.9597         -1129.04         -4723.89
  elstat hf:                            -1.331682863270469        -36.2369          -835.64         -3496.33

 Energy gradients wrt nuclear displacements
 ==========================================

     Atom      Cartesian (a.u./angstrom)
                 X         Y         Z
 ----------------------------------------
     1 Si    0.000083 -0.000065  0.000045
     2 C    -0.000353 -0.000051 -0.000688
     3 C     0.000390  0.000615 -0.000040
     4 C     0.000395 -0.000474  0.000054
     5 C    -0.000464 -0.000098  0.000504
     6 H    -0.000040 -0.000519  0.000473
     7 H    -0.000147  0.000520  0.000473
     8 H     0.000677  0.000081  0.000019
     9 H     0.000131 -0.000456 -0.000478
    10 H    -0.000713 -0.000027 -0.000066
    11 H     0.000053 -0.000423  0.000549
    12 H    -0.000067  0.000478  0.000493
    13 H    -0.000670 -0.000130 -0.000059
    14 H     0.000045  0.000449 -0.000529
    15 H     0.000684  0.000089  0.000166
    16 H    -0.000070  0.000518 -0.000490
    17 H     0.000067 -0.000508 -0.000425
 ----------------------------------------
 Mulliken charges used for AMS results%charges...
 
----------------------------------------------------------------------
Geometry Convergence after Step   1       (Hartree/Angstrom,Angstrom)
----------------------------------------------------------------------
current energy                               -3.81275268 Hartree
energy change                      -3.81275268     0.00017000    F
constrained gradient max            0.00071379     0.00100000    T
constrained gradient rms            0.00039166     0.00066667    T
gradient max                        0.00071379
gradient rms                        0.00039166
cart. step max                      0.00185191     0.01000000    T
cart. step rms                      0.00084862     0.00666667    T
 
 
--------
Geometry
--------
Atoms
  Index Symbol   x (angstrom)   y (angstrom)   z (angstrom)
      1     Si    -0.00029859     0.00021816     0.00005701       adf.R=1.908
      2      C    -0.92344637    -0.17167263    -1.62412072       adf.R=1.700
      3      C     0.88865450     1.65171217     0.04292025       adf.R=1.700
      4      C     1.25217817    -1.38764656     0.15673707       adf.R=1.700
      5      C    -1.21771006    -0.09217231     1.42440437       adf.R=1.700
      6      H    -1.45073883    -1.12774521    -1.67387501       adf.R=1.350
      7      H    -1.66065265     0.62679505    -1.74045375       adf.R=1.350
      8      H    -0.23499649    -0.12149830    -2.47152037       adf.R=1.350
      9      H     1.60535085     1.73049249    -0.77849261       adf.R=1.350
     10      H     0.17997258     2.47890755    -0.04701751       adf.R=1.350
     11      H     1.43549053     1.77623531     0.98104079       adf.R=1.350
     12      H     1.80482626    -1.31041970     1.09652513       adf.R=1.350
     13      H     0.75906935    -2.36279277     0.13440087       adf.R=1.350
     14      H     1.97439823    -1.35590531    -0.66302746       adf.R=1.350
     15      H    -0.70362339     0.00517212     2.38400570       adf.R=1.350
     16      H    -1.95952323     0.70762181     1.35627032       adf.R=1.350
     17      H    -1.74955088    -1.04700188     1.42184593       adf.R=1.350
 
Total System Charge             0.00000
Bonding info available!
 
 *** GOStep2 ***

 SOLVATION
-------------------------------------------

  The Delley construction of COSMO surface surface is calculated

       Division Level for Surface Triangles (NDIV)                  3
       Final Division Level for Triangles (NFDIV)                   1
       Radius of the Solvent (RSOL)                           3.08000 angstr
  Dielectric Constant (EPSL)                                 20.70000

       COSMO equation is solved iteratively-               conjugate-gradient

       Maximun of Iterations for Charges (NCIX)                  1000
       Criterion for Charge convergence (CCNV)                1.0E-08

  COSMO charges included variationally in SCF

       COSMO included at every SCF cycle

  Geometry-dependent empirical factor                         0.00000

  C-Matrix calculated in cspmtx

  In cspmtx, C-Matrix calculated using fitted potential

-------------------------------------------



 -------------------------------------------
  COSMO surface
  Area             =          529.071
  Volume           =          984.038
  Number of Points =         1216
 -------------------------------------------



 ======================
 RI Hartree-Fock Scheme
 ======================
  
 Fit Set Quality     : GOOD
 Integration Quality : GOOD
 Threshold Quality   : GOOD
 Response Quality    : DEFAULT
 Is Range Separated  :  F
 
 RIHartreeFock Dependency: number of modified vectors:          13
 cosmo_calcen: 0.5 (esolb+esolc) (Hartrees) =   -0.001800

 Solvation energy (screening term,uncorrected) =     -1.129666 kcal/mol

 Solvation energy (dispersion and cavitation terms) =      0.953695 kcal/mol
 Solvation Energy Contributions (Hartrees)
          esola   esolb+esolc
     0.00180024   -0.00360048
 esol last cycle   -0.00180024
  
 Hartree-Fock exchange energy:   -45.3932388420469     
 cosmo_calcen: 0.5 (esolb+esolc) (Hartrees) =   -0.001800

 Solvation energy (screening term,uncorrected) =     -1.129666 kcal/mol

 Solvation energy (dispersion and cavitation terms) =      0.953695 kcal/mol
 Solvation Energy Contributions (Hartrees)
          esola   esolb+esolc
     0.00180024   -0.00360048
 esol last cycle   -0.00180024
  pauli hf:                             -1.785068663709387        -48.5742         -1120.15         -4686.70
  elstat hf:                            -1.331804255051614        -36.2402          -835.72         -3496.65

 Energy gradients wrt nuclear displacements
 ==========================================

     Atom      Cartesian (a.u./angstrom)
                 X         Y         Z
 ----------------------------------------
     1 Si    0.000054 -0.000050  0.000027
     2 C    -0.000270 -0.000052 -0.000514
     3 C     0.000288  0.000471 -0.000008
     4 C     0.000308 -0.000360  0.000036
     5 C    -0.000343 -0.000051  0.000403
     6 H     0.000037 -0.000128  0.000216
     7 H     0.000009  0.000152  0.000231
     8 H     0.000224  0.000033  0.000096
     9 H    -0.000018 -0.000212 -0.000129
    10 H    -0.000248 -0.000100 -0.000021
    11 H    -0.000034 -0.000197  0.000143
    12 H    -0.000086  0.000206  0.000123
    13 H    -0.000248  0.000042 -0.000024
    14 H    -0.000054  0.000195 -0.000149
    15 H     0.000247  0.000032 -0.000028
    16 H     0.000048  0.000148 -0.000211
    17 H     0.000086 -0.000127 -0.000189
 ----------------------------------------
 Mulliken charges used for AMS results%charges...

 dE(predicted):    -0.58172E-05, dE(actual):    -0.86673E-05, Trust radius:    0.200000, all in a.u.
 
---------------------------------------------------------
Geometry Convergence after Step   2       ** CONVERGED **
---------------------------------------------------------
current energy                               -3.81276135 Hartree
energy change                      -0.00000867     0.00017000    T
constrained gradient max            0.00051580     0.00100000    T
constrained gradient rms            0.00019492     0.00066667    T
gradient max                        0.00051580
gradient rms                        0.00019492
cart. step max                      0.00151459     0.01000000    T
cart. step rms                      0.00062002     0.00666667    T
 
Geometry optimization converged

Optimized geometry:
 
--------
Geometry
--------
Atoms
  Index Symbol   x (angstrom)   y (angstrom)   z (angstrom)
      1     Si    -0.00029859     0.00021816     0.00005701       adf.R=1.908
      2      C    -0.92344637    -0.17167263    -1.62412072       adf.R=1.700
      3      C     0.88865450     1.65171217     0.04292025       adf.R=1.700
      4      C     1.25217817    -1.38764656     0.15673707       adf.R=1.700
      5      C    -1.21771006    -0.09217231     1.42440437       adf.R=1.700
      6      H    -1.45073883    -1.12774521    -1.67387501       adf.R=1.350
      7      H    -1.66065265     0.62679505    -1.74045375       adf.R=1.350
      8      H    -0.23499649    -0.12149830    -2.47152037       adf.R=1.350
      9      H     1.60535085     1.73049249    -0.77849261       adf.R=1.350
     10      H     0.17997258     2.47890755    -0.04701751       adf.R=1.350
     11      H     1.43549053     1.77623531     0.98104079       adf.R=1.350
     12      H     1.80482626    -1.31041970     1.09652513       adf.R=1.350
     13      H     0.75906935    -2.36279277     0.13440087       adf.R=1.350
     14      H     1.97439823    -1.35590531    -0.66302746       adf.R=1.350
     15      H    -0.70362339     0.00517212     2.38400570       adf.R=1.350
     16      H    -1.95952323     0.70762181     1.35627032       adf.R=1.350
     17      H    -1.74955088    -1.04700188     1.42184593       adf.R=1.350
 
Total System Charge             0.00000
Bonding info available!
 
Performing a single point calculation on the final geometry ...

 *** adf ***



 ===========================
 A T T A C H E D   F I L E S
 ===========================
  
 Restart/tmp/amstmp_ams_kid0.692747465/GOStep2.rkf*** GOStep2 ***



 ===============================
 M O D E L   P A R A M E T E R S
 ===============================
  
 DENSITY FUNCTIONAL POTENTIAL (scf)
    Hybrid:                            PBE0                                    == Not Default ==

 SPIN  (restricted / unrestr.)
    Molecule:                          Restricted                               
    Fragments:                         Restricted                               

 OTHER ASPECTS
    Relativistic Corrections:          ---                                     == Not Default ==

    Nuclear Charge Density Model:      Point Charge Nuclei                      
    Core Treatment:                    Frozen Orbital(s)                        

    Hyperfine or Zeeman Interaction:   ---                                      

 SOLVATION
-------------------------------------------

  The Delley construction of COSMO surface surface is calculated

       Division Level for Surface Triangles (NDIV)                  3
       Final Division Level for Triangles (NFDIV)                   1
       Radius of the Solvent (RSOL)                           3.08000 angstr
  Dielectric Constant (EPSL)                                 20.70000

       COSMO equation is solved iteratively-               conjugate-gradient

       Maximun of Iterations for Charges (NCIX)                  1000
       Criterion for Charge convergence (CCNV)                1.0E-08

  COSMO charges included variationally in SCF

       COSMO included at every SCF cycle

  Geometry-dependent empirical factor                         0.00000

  C-Matrix calculated in cspmtx

  In cspmtx, C-Matrix calculated using fitted potential

-------------------------------------------




 ===============
 G E O M E T R Y  ***  3D  Molecule  ***
 ===============
  

 ATOMS
 =====                            X Y Z                    CHARGE                     RADIUS
                                (Angstrom)             Nucl     +Core       At.Mass (Angstrom)
                       --------------------------    ----------------       ------- ----------
    1  Si             -0.0003    0.0002    0.0001     14.00     14.00       27.9769    1.9080
    2  C              -0.9234   -0.1717   -1.6241      6.00      6.00       12.0000    1.7000
    3  C               0.8887    1.6517    0.0429      6.00      6.00       12.0000    1.7000
    4  C               1.2522   -1.3876    0.1567      6.00      6.00       12.0000    1.7000
    5  C              -1.2177   -0.0922    1.4244      6.00      6.00       12.0000    1.7000
    6  H              -1.4507   -1.1277   -1.6739      1.00      1.00        1.0078    1.3500
    7  H              -1.6607    0.6268   -1.7405      1.00      1.00        1.0078    1.3500
    8  H              -0.2350   -0.1215   -2.4715      1.00      1.00        1.0078    1.3500
    9  H               1.6054    1.7305   -0.7785      1.00      1.00        1.0078    1.3500
   10  H               0.1800    2.4789   -0.0470      1.00      1.00        1.0078    1.3500
   11  H               1.4355    1.7762    0.9810      1.00      1.00        1.0078    1.3500
   12  H               1.8048   -1.3104    1.0965      1.00      1.00        1.0078    1.3500
   13  H               0.7591   -2.3628    0.1344      1.00      1.00        1.0078    1.3500
   14  H               1.9744   -1.3559   -0.6630      1.00      1.00        1.0078    1.3500
   15  H              -0.7036    0.0052    2.3840      1.00      1.00        1.0078    1.3500
   16  H              -1.9595    0.7076    1.3563      1.00      1.00        1.0078    1.3500
   17  H              -1.7496   -1.0470    1.4218      1.00      1.00        1.0078    1.3500


 FRAGMENTS
 =========                                     Atoms in this Fragment     Cart. coord.s (Angstrom)
                                               -------------------------------------------------------
    1  Si                                                1  Si          -0.0003    0.0002    0.0001
    2  C                                                 2  C           -0.9234   -0.1717   -1.6241
    3  C                                                 3  C            0.8887    1.6517    0.0429
    4  C                                                 4  C            1.2522   -1.3876    0.1567
    5  C                                                 5  C           -1.2177   -0.0922    1.4244
    6  H                                                 6  H           -1.4507   -1.1277   -1.6739
    7  H                                                 7  H           -1.6607    0.6268   -1.7405
    8  H                                                 8  H           -0.2350   -0.1215   -2.4715
    9  H                                                 9  H            1.6054    1.7305   -0.7785
   10  H                                                10  H            0.1800    2.4789   -0.0470
   11  H                                                11  H            1.4355    1.7762    0.9810
   12  H                                                12  H            1.8048   -1.3104    1.0965
   13  H                                                13  H            0.7591   -2.3628    0.1344
   14  H                                                14  H            1.9744   -1.3559   -0.6630
   15  H                                                15  H           -0.7036    0.0052    2.3840
   16  H                                                16  H           -1.9595    0.7076    1.3563
   17  H                                                17  H           -1.7496   -1.0470    1.4218


 Interatomic Distance Matrix (Angstrom)
 --------------------------------------

   1)     0.000
   2)     1.876   0.000
   3)     1.876   3.064   0.000
   4)     1.876   3.063   3.063   0.000
   5)     1.876   3.064   3.064   3.064   0.000
   6)     2.486   1.093   4.018   3.275   3.275   0.000
   7)     2.486   1.093   3.276   4.018   3.276   1.768   0.000
   8)     2.486   1.093   3.276   3.275   4.018   1.768   1.768   0.000
   9)     2.486   3.275   1.093   3.274   4.018   4.279   3.579   3.112   0.000
  10)     2.486   3.276   1.093   4.018   3.276   4.279   3.112   3.579   1.768   0.000
  11)     2.486   4.018   1.093   3.275   3.275   4.880   4.279   4.279   1.768   1.768
          0.000
  12)     2.486   4.018   3.275   1.093   3.275   4.279   4.880   4.278   3.578   4.279
          3.111   0.000
  13)     2.486   3.275   4.018   1.093   3.275   3.111   4.279   3.578   4.278   4.880
          4.279   1.768   0.000
  14)     2.486   3.275   3.275   1.093   4.018   3.578   4.278   3.111   3.111   4.278
          3.578   1.768   1.768   0.000
  15)     2.486   4.018   3.275   3.275   1.093   4.279   4.279   4.880   4.279   3.579
          3.111   3.111   3.579   4.279   0.000
  16)     2.486   3.276   3.275   4.018   1.093   3.579   3.112   4.279   4.279   3.112
          3.579   4.279   4.279   4.880   1.768   0.000
  17)     2.486   3.275   4.018   3.275   1.093   3.111   3.579   4.279   4.880   4.279
          4.279   3.579   3.112   4.279   1.768   1.768   0.000

 Min. Distance =    1.0930
 Max. Distance =    4.8798



 =====================================
 S Y M M E T R Y ,   E L E C T R O N S
 =====================================
  
 Symmetry: NOSYM

 Irreducible Representations, including subspecies
 -------------------------------------------------
 A

 Symmetry is NOT used when fitting density


 Configuration of Valence Electrons
 ==================================
 ( determined in the SCF procedure )

 Total:   50

 Net Charge: 0 (Nuclei minus Electrons)

 Aufbau principle for MO occupations will be applied through SCF cycle no.     150
 Thereafter, the program will assign electrons to MOs that are spatially
 similar to the occupied MOs in a "reference" cycle ("KeepOrbitals").
 The reference cycle is always the PREVIOUS cycle: it will evolve with
 the SCF procedure.
1
 ***************************************************************************************************



                                      ****************************************
                                      *  B U I L D : (Fragments, Functions)  *
                                      ****************************************
  



 =======
 S F O s  ***  (Symmetrized Fragment Orbitals)  ***
 =======
  
 SFOs are linear combinations of (valence) Fragment Orbitals (FOs), such that the SFOs transform as the
 irreducible representations of the (molecular) symmetry group. Each SFO is therefore characterized by
 an irrep of the molecule and by a few (or only one) generating FOs.
 The SFOs constitute a symmetry-adapted basis for the Fock matrix. The MO eigenvector coefficients in
 this basis provide a direct interpretation of the MOs in terms of Frontier Orbital Theory.

 The SFOs are combined with auxiliary Core Functions (CFs) to ensure orthogonalization on the (frozen)
 Core Orbitals (COs). The Core-orthogonalized SFOs (CSFOs) constitute the true Fock basis.

 The FOs, and hence also the (C)SFOs are combinations of the elementary basis functions (BAS). The basis
 functions that participate in the description of the SFOs depend on the irrep. The indices of the
 involved functions are printed below for each irrep.
 (The complete list of primitive basis functions is printed in another section)

 Total nr. of (C)SFOs (summation over all irreps) :   270

 NOTE: a (C)SFO that is defined as a combination of more than one FO is usually NOT normalized.



                                       === A ===
 Nr. of SFOs :  270
 Cartesian basis functions that participate in this irrep (total number =   302) :
      1     2     3     4    11    12    13     5     8    14
     17    20     6     9    15    18    21     7    10    16
     19    22    23    24    25    26    27    28    29    30
     31    32    33    34    35    36    37    38    39    40
     41    42    43    44    47    50    45    48    51    46
     49    52    53    54    55    56    57    58    59    60
     61    62    63    64    65    66    67    68    69    70
     71    72    73    74    77    80    75    78    81    76
     79    82    83    84    85    86    87    88    89    90
     91    92    93    94    95    96    97    98    99   100
    101   102   103   104   107   110   105   108   111   106
    109   112   113   114   115   116   117   118   119   120
    121   122   123   124   125   126   127   128   129   130
    131   132   133   134   137   140   135   138   141   136
    139   142   143   144   145   146   147   148   149   150
    151   152   153   154   155   156   157   158   159   160
    161   162   163   164   165   166   167   168   169   170
    171   172   173   174   175   176   177   178   179   180
    181   182   183   184   185   186   187   188   189   190
    191   192   193   194   195   196   197   198   199   200
    201   202   203   204   205   206   207   208   209   210
    211   212   213   214   215   216   217   218   219   220
    221   222   223   224   225   226   227   228   229   230
    231   232   233   234   235   236   237   238   239   240
    241   242   243   244   245   246   247   248   249   250
    251   252   253   254   255   256   257   258   259   260
    261   262   263   264   265   266   267   268   269   270
    271   272   273   274   275   276   277   278   279   280
    281   282   283   284   285   286   287   288   289   290
    291   292   293   294   295   296   297   298   299   300
    301   302

    SFO  (index         Fragment          Generating    Expansion in Fragment Orbitals
  indx  incl.CFs)   Occup   Orb.Energy   FragmentType  Coeff.   Orbital     on Fragment
 --------------------------------------------------------------------------------------
     1       1      2.000     -66.321 au  Si            1.00      1 S               1
                        (   -1804.694 eV)
     2       2      2.000      -5.393 au  Si            1.00      2 S               1
                        (    -146.739 eV)
     3       3      2.000      -0.449 au  Si            1.00      3 S               1
                        (     -12.229 eV)
     4       4       --         0.154 au  Si            1.00      4 S               1
                        (       4.203 eV)
     5       5       --         1.576 au  Si            1.00      5 S               1
                        (      42.898 eV)
     6       6       --         9.671 au  Si            1.00      6 S               1
                        (     263.161 eV)
     7       7       --       151.210 au  Si            1.00      7 S               1
                        (    4114.636 eV)
     8       8      2.000      -3.722 au  Si            1.00      1 P:x             1
                        (    -101.286 eV)
     9       9      0.667      -0.144 au  Si            1.00      2 P:x             1
                        (      -3.922 eV)
    10      10       --         0.084 au  Si            1.00      3 P:x             1
                        (       2.298 eV)
    11      11       --         0.743 au  Si            1.00      4 P:x             1
                        (      20.208 eV)
    12      12       --         8.527 au  Si            1.00      5 P:x             1
                        (     232.039 eV)
    13      13      2.000      -3.722 au  Si            1.00      1 P:y             1
                        (    -101.286 eV)
    14      14      0.667      -0.144 au  Si            1.00      2 P:y             1
                        (      -3.922 eV)
    15      15       --         0.084 au  Si            1.00      3 P:y             1
                        (       2.298 eV)
    16      16       --         0.743 au  Si            1.00      4 P:y             1
                        (      20.208 eV)
    17      17       --         8.527 au  Si            1.00      5 P:y             1
                        (     232.039 eV)
    18      18      2.000      -3.722 au  Si            1.00      1 P:z             1
                        (    -101.286 eV)
    19      19      0.667      -0.144 au  Si            1.00      2 P:z             1
                        (      -3.922 eV)
    20      20       --         0.084 au  Si            1.00      3 P:z             1
                        (       2.298 eV)
    21      21       --         0.743 au  Si            1.00      4 P:z             1
                        (      20.208 eV)
    22      22       --         8.527 au  Si            1.00      5 P:z             1
                        (     232.039 eV)
    23      23       --         0.420 au  Si            1.00      1 D:z2            1
                        (      11.442 eV)
    24      24       --         0.420 au  Si            1.00      1 D:x2-y2         1
                        (      11.442 eV)
    25      25       --         0.420 au  Si            1.00      1 D:xy            1
                        (      11.442 eV)
    26      26       --         0.420 au  Si            1.00      1 D:xz            1
                        (      11.442 eV)
    27      27       --         0.420 au  Si            1.00      1 D:yz            1
                        (      11.442 eV)
    28      28       --         1.107 au  Si            1.00      1 F:z3            1
                        (      30.124 eV)
    29      29       --         1.107 au  Si            1.00      1 F:z             1
                        (      30.124 eV)
    30      30       --         1.107 au  Si            1.00      1 F:xyz           1
                        (      30.124 eV)
    31      31       --         1.107 au  Si            1.00      1 F:z2x           1
                        (      30.124 eV)
    32      32       --         1.107 au  Si            1.00      1 F:z2y           1
                        (      30.124 eV)
    33      33       --         1.107 au  Si            1.00      1 F:x             1
                        (      30.124 eV)
    34      34       --         1.107 au  Si            1.00      1 F:y             1
                        (      30.124 eV)
    35      35      2.000     -10.406 au  C             1.00      1 S               2
                        (    -283.169 eV)
    36      36      2.000      -0.583 au  C             1.00      2 S               2
                        (     -15.858 eV)
    37      37       --         0.415 au  C             1.00      3 S               2
                        (      11.281 eV)
    38      38       --         5.555 au  C             1.00      4 S               2
                        (     151.157 eV)
    39      39       --        50.670 au  C             1.00      5 S               2
                        (    1378.798 eV)
    40      40      0.667      -0.186 au  C             1.00      1 P:x             2
                        (      -5.051 eV)
    41      41       --         0.203 au  C             1.00      2 P:x             2
                        (       5.518 eV)
    42      42       --         2.125 au  C             1.00      3 P:x             2
                        (      57.838 eV)
    43      43      0.667      -0.186 au  C             1.00      1 P:y             2
                        (      -5.051 eV)
    44      44       --         0.203 au  C             1.00      2 P:y             2
                        (       5.518 eV)
    45      45       --         2.125 au  C             1.00      3 P:y             2
                        (      57.838 eV)
    46      46      0.667      -0.186 au  C             1.00      1 P:z             2
                        (      -5.051 eV)
    47      47       --         0.203 au  C             1.00      2 P:z             2
                        (       5.518 eV)
    48      48       --         2.125 au  C             1.00      3 P:z             2
                        (      57.838 eV)
    49      49       --         1.300 au  C             1.00      1 D:z2            2
                        (      35.363 eV)
    50      50       --         1.300 au  C             1.00      1 D:x2-y2         2
                        (      35.363 eV)
    51      51       --         1.300 au  C             1.00      1 D:xy            2
                        (      35.363 eV)
    52      52       --         1.300 au  C             1.00      1 D:xz            2
                        (      35.363 eV)
    53      53       --         1.300 au  C             1.00      1 D:yz            2
                        (      35.363 eV)
    54      54       --         4.097 au  C             1.00      1 F:z3            2
                        (     111.488 eV)
    55      55       --         4.097 au  C             1.00      1 F:z             2
                        (     111.488 eV)
    56      56       --         4.097 au  C             1.00      1 F:xyz           2
                        (     111.488 eV)
    57      57       --         4.097 au  C             1.00      1 F:z2x           2
                        (     111.488 eV)
    58      58       --         4.097 au  C             1.00      1 F:z2y           2
                        (     111.488 eV)
    59      59       --         4.097 au  C             1.00      1 F:x             2
                        (     111.488 eV)
    60      60       --         4.097 au  C             1.00      1 F:y             2
                        (     111.488 eV)
    61      61      2.000     -10.406 au  C             1.00      1 S               3
                        (    -283.169 eV)
    62      62      2.000      -0.583 au  C             1.00      2 S               3
                        (     -15.858 eV)
    63      63       --         0.415 au  C             1.00      3 S               3
                        (      11.281 eV)
    64      64       --         5.555 au  C             1.00      4 S               3
                        (     151.157 eV)
    65      65       --        50.670 au  C             1.00      5 S               3
                        (    1378.798 eV)
    66      66      0.667      -0.186 au  C             1.00      1 P:x             3
                        (      -5.051 eV)
    67      67       --         0.203 au  C             1.00      2 P:x             3
                        (       5.518 eV)
    68      68       --         2.125 au  C             1.00      3 P:x             3
                        (      57.838 eV)
    69      69      0.667      -0.186 au  C             1.00      1 P:y             3
                        (      -5.051 eV)
    70      70       --         0.203 au  C             1.00      2 P:y             3
                        (       5.518 eV)
    71      71       --         2.125 au  C             1.00      3 P:y             3
                        (      57.838 eV)
    72      72      0.667      -0.186 au  C             1.00      1 P:z             3
                        (      -5.051 eV)
    73      73       --         0.203 au  C             1.00      2 P:z             3
                        (       5.518 eV)
    74      74       --         2.125 au  C             1.00      3 P:z             3
                        (      57.838 eV)
    75      75       --         1.300 au  C             1.00      1 D:z2            3
                        (      35.363 eV)
    76      76       --         1.300 au  C             1.00      1 D:x2-y2         3
                        (      35.363 eV)
    77      77       --         1.300 au  C             1.00      1 D:xy            3
                        (      35.363 eV)
    78      78       --         1.300 au  C             1.00      1 D:xz            3
                        (      35.363 eV)
    79      79       --         1.300 au  C             1.00      1 D:yz            3
                        (      35.363 eV)
    80      80       --         4.097 au  C             1.00      1 F:z3            3
                        (     111.488 eV)
    81      81       --         4.097 au  C             1.00      1 F:z             3
                        (     111.488 eV)
    82      82       --         4.097 au  C             1.00      1 F:xyz           3
                        (     111.488 eV)
    83      83       --         4.097 au  C             1.00      1 F:z2x           3
                        (     111.488 eV)
    84      84       --         4.097 au  C             1.00      1 F:z2y           3
                        (     111.488 eV)
    85      85       --         4.097 au  C             1.00      1 F:x             3
                        (     111.488 eV)
    86      86       --         4.097 au  C             1.00      1 F:y             3
                        (     111.488 eV)
    87      87      2.000     -10.406 au  C             1.00      1 S               4
                        (    -283.169 eV)
    88      88      2.000      -0.583 au  C             1.00      2 S               4
                        (     -15.858 eV)
    89      89       --         0.415 au  C             1.00      3 S               4
                        (      11.281 eV)
    90      90       --         5.555 au  C             1.00      4 S               4
                        (     151.157 eV)
    91      91       --        50.670 au  C             1.00      5 S               4
                        (    1378.798 eV)
    92      92      0.667      -0.186 au  C             1.00      1 P:x             4
                        (      -5.051 eV)
    93      93       --         0.203 au  C             1.00      2 P:x             4
                        (       5.518 eV)
    94      94       --         2.125 au  C             1.00      3 P:x             4
                        (      57.838 eV)
    95      95      0.667      -0.186 au  C             1.00      1 P:y             4
                        (      -5.051 eV)
    96      96       --         0.203 au  C             1.00      2 P:y             4
                        (       5.518 eV)
    97      97       --         2.125 au  C             1.00      3 P:y             4
                        (      57.838 eV)
    98      98      0.667      -0.186 au  C             1.00      1 P:z             4
                        (      -5.051 eV)
    99      99       --         0.203 au  C             1.00      2 P:z             4
                        (       5.518 eV)
   100     100       --         2.125 au  C             1.00      3 P:z             4
                        (      57.838 eV)
   101     101       --         1.300 au  C             1.00      1 D:z2            4
                        (      35.363 eV)
   102     102       --         1.300 au  C             1.00      1 D:x2-y2         4
                        (      35.363 eV)
   103     103       --         1.300 au  C             1.00      1 D:xy            4
                        (      35.363 eV)
   104     104       --         1.300 au  C             1.00      1 D:xz            4
                        (      35.363 eV)
   105     105       --         1.300 au  C             1.00      1 D:yz            4
                        (      35.363 eV)
   106     106       --         4.097 au  C             1.00      1 F:z3            4
                        (     111.488 eV)
   107     107       --         4.097 au  C             1.00      1 F:z             4
                        (     111.488 eV)
   108     108       --         4.097 au  C             1.00      1 F:xyz           4
                        (     111.488 eV)
   109     109       --         4.097 au  C             1.00      1 F:z2x           4
                        (     111.488 eV)
   110     110       --         4.097 au  C             1.00      1 F:z2y           4
                        (     111.488 eV)
   111     111       --         4.097 au  C             1.00      1 F:x             4
                        (     111.488 eV)
   112     112       --         4.097 au  C             1.00      1 F:y             4
                        (     111.488 eV)
   113     113      2.000     -10.406 au  C             1.00      1 S               5
                        (    -283.169 eV)
   114     114      2.000      -0.583 au  C             1.00      2 S               5
                        (     -15.858 eV)
   115     115       --         0.415 au  C             1.00      3 S               5
                        (      11.281 eV)
   116     116       --         5.555 au  C             1.00      4 S               5
                        (     151.157 eV)
   117     117       --        50.670 au  C             1.00      5 S               5
                        (    1378.798 eV)
   118     118      0.667      -0.186 au  C             1.00      1 P:x             5
                        (      -5.051 eV)
   119     119       --         0.203 au  C             1.00      2 P:x             5
                        (       5.518 eV)
   120     120       --         2.125 au  C             1.00      3 P:x             5
                        (      57.838 eV)
   121     121      0.667      -0.186 au  C             1.00      1 P:y             5
                        (      -5.051 eV)
   122     122       --         0.203 au  C             1.00      2 P:y             5
                        (       5.518 eV)
   123     123       --         2.125 au  C             1.00      3 P:y             5
                        (      57.838 eV)
   124     124      0.667      -0.186 au  C             1.00      1 P:z             5
                        (      -5.051 eV)
   125     125       --         0.203 au  C             1.00      2 P:z             5
                        (       5.518 eV)
   126     126       --         2.125 au  C             1.00      3 P:z             5
                        (      57.838 eV)
   127     127       --         1.300 au  C             1.00      1 D:z2            5
                        (      35.363 eV)
   128     128       --         1.300 au  C             1.00      1 D:x2-y2         5
                        (      35.363 eV)
   129     129       --         1.300 au  C             1.00      1 D:xy            5
                        (      35.363 eV)
   130     130       --         1.300 au  C             1.00      1 D:xz            5
                        (      35.363 eV)
   131     131       --         1.300 au  C             1.00      1 D:yz            5
                        (      35.363 eV)
   132     132       --         4.097 au  C             1.00      1 F:z3            5
                        (     111.488 eV)
   133     133       --         4.097 au  C             1.00      1 F:z             5
                        (     111.488 eV)
   134     134       --         4.097 au  C             1.00      1 F:xyz           5
                        (     111.488 eV)
   135     135       --         4.097 au  C             1.00      1 F:z2x           5
                        (     111.488 eV)
   136     136       --         4.097 au  C             1.00      1 F:z2y           5
                        (     111.488 eV)
   137     137       --         4.097 au  C             1.00      1 F:x             5
                        (     111.488 eV)
   138     138       --         4.097 au  C             1.00      1 F:y             5
                        (     111.488 eV)
   139     139      1.000      -0.242 au  H             1.00      1 S               6
                        (      -6.582 eV)
   140     140       --         0.113 au  H             1.00      2 S               6
                        (       3.073 eV)
   141     141       --         1.599 au  H             1.00      3 S               6
                        (      43.507 eV)
   142     142       --         0.445 au  H             1.00      1 P:x             6
                        (      12.103 eV)
   143     143       --         0.445 au  H             1.00      1 P:y             6
                        (      12.103 eV)
   144     144       --         0.445 au  H             1.00      1 P:z             6
                        (      12.103 eV)
   145     145       --         2.628 au  H             1.00      1 D:z2            6
                        (      71.513 eV)
   146     146       --         2.628 au  H             1.00      1 D:x2-y2         6
                        (      71.513 eV)
   147     147       --         2.628 au  H             1.00      1 D:xy            6
                        (      71.513 eV)
   148     148       --         2.628 au  H             1.00      1 D:xz            6
                        (      71.513 eV)
   149     149       --         2.628 au  H             1.00      1 D:yz            6
                        (      71.513 eV)
   150     150      1.000      -0.242 au  H             1.00      1 S               7
                        (      -6.582 eV)
   151     151       --         0.113 au  H             1.00      2 S               7
                        (       3.073 eV)
   152     152       --         1.599 au  H             1.00      3 S               7
                        (      43.507 eV)
   153     153       --         0.445 au  H             1.00      1 P:x             7
                        (      12.103 eV)
   154     154       --         0.445 au  H             1.00      1 P:y             7
                        (      12.103 eV)
   155     155       --         0.445 au  H             1.00      1 P:z             7
                        (      12.103 eV)
   156     156       --         2.628 au  H             1.00      1 D:z2            7
                        (      71.513 eV)
   157     157       --         2.628 au  H             1.00      1 D:x2-y2         7
                        (      71.513 eV)
   158     158       --         2.628 au  H             1.00      1 D:xy            7
                        (      71.513 eV)
   159     159       --         2.628 au  H             1.00      1 D:xz            7
                        (      71.513 eV)
   160     160       --         2.628 au  H             1.00      1 D:yz            7
                        (      71.513 eV)
   161     161      1.000      -0.242 au  H             1.00      1 S               8
                        (      -6.582 eV)
   162     162       --         0.113 au  H             1.00      2 S               8
                        (       3.073 eV)
   163     163       --         1.599 au  H             1.00      3 S               8
                        (      43.507 eV)
   164     164       --         0.445 au  H             1.00      1 P:x             8
                        (      12.103 eV)
   165     165       --         0.445 au  H             1.00      1 P:y             8
                        (      12.103 eV)
   166     166       --         0.445 au  H             1.00      1 P:z             8
                        (      12.103 eV)
   167     167       --         2.628 au  H             1.00      1 D:z2            8
                        (      71.513 eV)
   168     168       --         2.628 au  H             1.00      1 D:x2-y2         8
                        (      71.513 eV)
   169     169       --         2.628 au  H             1.00      1 D:xy            8
                        (      71.513 eV)
   170     170       --         2.628 au  H             1.00      1 D:xz            8
                        (      71.513 eV)
   171     171       --         2.628 au  H             1.00      1 D:yz            8
                        (      71.513 eV)
   172     172      1.000      -0.242 au  H             1.00      1 S               9
                        (      -6.582 eV)
   173     173       --         0.113 au  H             1.00      2 S               9
                        (       3.073 eV)
   174     174       --         1.599 au  H             1.00      3 S               9
                        (      43.507 eV)
   175     175       --         0.445 au  H             1.00      1 P:x             9
                        (      12.103 eV)
   176     176       --         0.445 au  H             1.00      1 P:y             9
                        (      12.103 eV)
   177     177       --         0.445 au  H             1.00      1 P:z             9
                        (      12.103 eV)
   178     178       --         2.628 au  H             1.00      1 D:z2            9
                        (      71.513 eV)
   179     179       --         2.628 au  H             1.00      1 D:x2-y2         9
                        (      71.513 eV)
   180     180       --         2.628 au  H             1.00      1 D:xy            9
                        (      71.513 eV)
   181     181       --         2.628 au  H             1.00      1 D:xz            9
                        (      71.513 eV)
   182     182       --         2.628 au  H             1.00      1 D:yz            9
                        (      71.513 eV)
   183     183      1.000      -0.242 au  H             1.00      1 S              10
                        (      -6.582 eV)
   184     184       --         0.113 au  H             1.00      2 S              10
                        (       3.073 eV)
   185     185       --         1.599 au  H             1.00      3 S              10
                        (      43.507 eV)
   186     186       --         0.445 au  H             1.00      1 P:x            10
                        (      12.103 eV)
   187     187       --         0.445 au  H             1.00      1 P:y            10
                        (      12.103 eV)
   188     188       --         0.445 au  H             1.00      1 P:z            10
                        (      12.103 eV)
   189     189       --         2.628 au  H             1.00      1 D:z2           10
                        (      71.513 eV)
   190     190       --         2.628 au  H             1.00      1 D:x2-y2        10
                        (      71.513 eV)
   191     191       --         2.628 au  H             1.00      1 D:xy           10
                        (      71.513 eV)
   192     192       --         2.628 au  H             1.00      1 D:xz           10
                        (      71.513 eV)
   193     193       --         2.628 au  H             1.00      1 D:yz           10
                        (      71.513 eV)
   194     194      1.000      -0.242 au  H             1.00      1 S              11
                        (      -6.582 eV)
   195     195       --         0.113 au  H             1.00      2 S              11
                        (       3.073 eV)
   196     196       --         1.599 au  H             1.00      3 S              11
                        (      43.507 eV)
   197     197       --         0.445 au  H             1.00      1 P:x            11
                        (      12.103 eV)
   198     198       --         0.445 au  H             1.00      1 P:y            11
                        (      12.103 eV)
   199     199       --         0.445 au  H             1.00      1 P:z            11
                        (      12.103 eV)
   200     200       --         2.628 au  H             1.00      1 D:z2           11
                        (      71.513 eV)
   201     201       --         2.628 au  H             1.00      1 D:x2-y2        11
                        (      71.513 eV)
   202     202       --         2.628 au  H             1.00      1 D:xy           11
                        (      71.513 eV)
   203     203       --         2.628 au  H             1.00      1 D:xz           11
                        (      71.513 eV)
   204     204       --         2.628 au  H             1.00      1 D:yz           11
                        (      71.513 eV)
   205     205      1.000      -0.242 au  H             1.00      1 S              12
                        (      -6.582 eV)
   206     206       --         0.113 au  H             1.00      2 S              12
                        (       3.073 eV)
   207     207       --         1.599 au  H             1.00      3 S              12
                        (      43.507 eV)
   208     208       --         0.445 au  H             1.00      1 P:x            12
                        (      12.103 eV)
   209     209       --         0.445 au  H             1.00      1 P:y            12
                        (      12.103 eV)
   210     210       --         0.445 au  H             1.00      1 P:z            12
                        (      12.103 eV)
   211     211       --         2.628 au  H             1.00      1 D:z2           12
                        (      71.513 eV)
   212     212       --         2.628 au  H             1.00      1 D:x2-y2        12
                        (      71.513 eV)
   213     213       --         2.628 au  H             1.00      1 D:xy           12
                        (      71.513 eV)
   214     214       --         2.628 au  H             1.00      1 D:xz           12
                        (      71.513 eV)
   215     215       --         2.628 au  H             1.00      1 D:yz           12
                        (      71.513 eV)
   216     216      1.000      -0.242 au  H             1.00      1 S              13
                        (      -6.582 eV)
   217     217       --         0.113 au  H             1.00      2 S              13
                        (       3.073 eV)
   218     218       --         1.599 au  H             1.00      3 S              13
                        (      43.507 eV)
   219     219       --         0.445 au  H             1.00      1 P:x            13
                        (      12.103 eV)
   220     220       --         0.445 au  H             1.00      1 P:y            13
                        (      12.103 eV)
   221     221       --         0.445 au  H             1.00      1 P:z            13
                        (      12.103 eV)
   222     222       --         2.628 au  H             1.00      1 D:z2           13
                        (      71.513 eV)
   223     223       --         2.628 au  H             1.00      1 D:x2-y2        13
                        (      71.513 eV)
   224     224       --         2.628 au  H             1.00      1 D:xy           13
                        (      71.513 eV)
   225     225       --         2.628 au  H             1.00      1 D:xz           13
                        (      71.513 eV)
   226     226       --         2.628 au  H             1.00      1 D:yz           13
                        (      71.513 eV)
   227     227      1.000      -0.242 au  H             1.00      1 S              14
                        (      -6.582 eV)
   228     228       --         0.113 au  H             1.00      2 S              14
                        (       3.073 eV)
   229     229       --         1.599 au  H             1.00      3 S              14
                        (      43.507 eV)
   230     230       --         0.445 au  H             1.00      1 P:x            14
                        (      12.103 eV)
   231     231       --         0.445 au  H             1.00      1 P:y            14
                        (      12.103 eV)
   232     232       --         0.445 au  H             1.00      1 P:z            14
                        (      12.103 eV)
   233     233       --         2.628 au  H             1.00      1 D:z2           14
                        (      71.513 eV)
   234     234       --         2.628 au  H             1.00      1 D:x2-y2        14
                        (      71.513 eV)
   235     235       --         2.628 au  H             1.00      1 D:xy           14
                        (      71.513 eV)
   236     236       --         2.628 au  H             1.00      1 D:xz           14
                        (      71.513 eV)
   237     237       --         2.628 au  H             1.00      1 D:yz           14
                        (      71.513 eV)
   238     238      1.000      -0.242 au  H             1.00      1 S              15
                        (      -6.582 eV)
   239     239       --         0.113 au  H             1.00      2 S              15
                        (       3.073 eV)
   240     240       --         1.599 au  H             1.00      3 S              15
                        (      43.507 eV)
   241     241       --         0.445 au  H             1.00      1 P:x            15
                        (      12.103 eV)
   242     242       --         0.445 au  H             1.00      1 P:y            15
                        (      12.103 eV)
   243     243       --         0.445 au  H             1.00      1 P:z            15
                        (      12.103 eV)
   244     244       --         2.628 au  H             1.00      1 D:z2           15
                        (      71.513 eV)
   245     245       --         2.628 au  H             1.00      1 D:x2-y2        15
                        (      71.513 eV)
   246     246       --         2.628 au  H             1.00      1 D:xy           15
                        (      71.513 eV)
   247     247       --         2.628 au  H             1.00      1 D:xz           15
                        (      71.513 eV)
   248     248       --         2.628 au  H             1.00      1 D:yz           15
                        (      71.513 eV)
   249     249      1.000      -0.242 au  H             1.00      1 S              16
                        (      -6.582 eV)
   250     250       --         0.113 au  H             1.00      2 S              16
                        (       3.073 eV)
   251     251       --         1.599 au  H             1.00      3 S              16
                        (      43.507 eV)
   252     252       --         0.445 au  H             1.00      1 P:x            16
                        (      12.103 eV)
   253     253       --         0.445 au  H             1.00      1 P:y            16
                        (      12.103 eV)
   254     254       --         0.445 au  H             1.00      1 P:z            16
                        (      12.103 eV)
   255     255       --         2.628 au  H             1.00      1 D:z2           16
                        (      71.513 eV)
   256     256       --         2.628 au  H             1.00      1 D:x2-y2        16
                        (      71.513 eV)
   257     257       --         2.628 au  H             1.00      1 D:xy           16
                        (      71.513 eV)
   258     258       --         2.628 au  H             1.00      1 D:xz           16
                        (      71.513 eV)
   259     259       --         2.628 au  H             1.00      1 D:yz           16
                        (      71.513 eV)
   260     260      1.000      -0.242 au  H             1.00      1 S              17
                        (      -6.582 eV)
   261     261       --         0.113 au  H             1.00      2 S              17
                        (       3.073 eV)
   262     262       --         1.599 au  H             1.00      3 S              17
                        (      43.507 eV)
   263     263       --         0.445 au  H             1.00      1 P:x            17
                        (      12.103 eV)
   264     264       --         0.445 au  H             1.00      1 P:y            17
                        (      12.103 eV)
   265     265       --         0.445 au  H             1.00      1 P:z            17
                        (      12.103 eV)
   266     266       --         2.628 au  H             1.00      1 D:z2           17
                        (      71.513 eV)
   267     267       --         2.628 au  H             1.00      1 D:x2-y2        17
                        (      71.513 eV)
   268     268       --         2.628 au  H             1.00      1 D:xy           17
                        (      71.513 eV)
   269     269       --         2.628 au  H             1.00      1 D:xz           17
                        (      71.513 eV)
   270     270       --         2.628 au  H             1.00      1 D:yz           17
                        (      71.513 eV)



 ================================
 (Slater-type)  F U N C T I O N S  ***  (Basis and Fit)  ***
 ================================
  

 Atom Type    1  (Si)
 ==============

 Valence Basis Sets:  14
 -----------------------
   1 S   17.050000
   1 S   12.450000
   2 S    5.150000
   2 S    3.600000
   2 P    6.850000
   2 P    3.650000
   3 S    2.950000
   3 S    1.850000
   3 S    1.200000
   3 P    2.000000
   3 P    1.200000
   3 P    0.750000
   3 D    1.750000
   4 F    1.900000

 Charge Fitting Sets (for the computation of the Coulomb Potential):  30
 -----------------------------------------------------------------------
   1 S   34.100000
   1 S   20.150000
   2 S   22.060000
   2 S   14.690000
   3 S   14.370000
   3 S   10.190000
   3 S    7.230000
   4 S    6.780000
   4 S    5.010000
   4 S    3.700000
   5 S    3.410000
   5 S    2.590000
   5 S    1.970000
   5 S    1.500000
   2 P   23.900000
   3 P   17.130000
   4 P   12.310000
   4 P    7.080000
   5 P    5.140000
   5 P    3.120000
   5 P    1.890000
   3 D   18.400000
   4 D   12.380000
   4 D    6.680000
   5 D    4.570000
   5 D    2.620000
   5 D    1.500000
   4 F    5.000000
   4 F    3.000000
   5 G    3.880000

 Atom Type    2  (C)
 ==============

 Valence Basis Sets:  10
 -----------------------
   1 S    7.680000
   1 S    5.000000
   2 S    1.280000
   2 S    2.100000
   2 S    4.600000
   2 P    0.820000
   2 P    1.480000
   2 P    2.940000
   3 D    2.200000
   4 F    3.300000

 Charge Fitting Sets (for the computation of the Coulomb Potential):  22
 -----------------------------------------------------------------------
   1 S   15.360000
   2 S   17.530000
   2 S   12.070000
   2 S    8.310000
   2 S    5.730000
   3 S    5.780000
   3 S    4.220000
   3 S    3.080000
   3 S    2.250000
   3 S    1.640000
   2 P    9.880000
   2 P    5.800000
   3 P    5.050000
   3 P    3.230000
   3 P    2.060000
   3 D    7.200000
   3 D    4.400000
   3 D    2.690000
   3 D    1.640000
   4 F    5.400000
   4 F    3.550000
   5 G    4.500000

 Atom Type    3  (H)
 ==============

 Valence Basis Sets:   5
 -----------------------
   1 S    0.690000
   1 S    0.920000
   1 S    1.580000
   2 P    1.250000
   3 D    2.500000

 Charge Fitting Sets (for the computation of the Coulomb Potential):  11
 -----------------------------------------------------------------------
   1 S    3.160000
   1 S    2.090000
   1 S    1.380000
   2 S    1.500000
   2 P    4.000000
   2 P    2.650000
   2 P    1.750000
   3 D    4.000000
   3 D    2.500000
   4 F    3.000000
   5 G    4.000000


 BAS: List of all Elementary Cartesian Basis Functions
 =====================================================

 The numbering in the list below (to the right of the function characteristics) is referred
 to in print-outs of MO eigenvectors and Mulliken populations in the BAS representation
 (as contrasted to the SFO representation).

 Notes:
 1. The functions are characterized by a polynomial prefactor (powers of x,y,z and r) and
    an exponential decay factor alpha.
 2. Since the basis sets are specific for an atom TYPE, the individual functions occur on
    all atoms of that type.
 3. The word 'Core' in the left margin signals that it is a Core Function (CF) : not a
    degree of freedom in the valence set, but only used to ensure orthogonalization of
    the other valence basis functions on the frozen Core Orbitals.


 (power of) X  Y  Z  R     Alpha  on Atom
            ==========     =====     ==========

 Si                                   1
                                  ---------------------------------------------------------------------------
            0  0  0  0    17.050      1
            0  0  0  0    12.450      2
            0  0  0  1     5.150      3
            0  0  0  1     3.600      4
            1  0  0  0     6.850      5
            0  1  0  0     6.850      6
            0  0  1  0     6.850      7
            1  0  0  0     3.650      8
            0  1  0  0     3.650      9
            0  0  1  0     3.650     10
            0  0  0  2     2.950     11
            0  0  0  2     1.850     12
            0  0  0  2     1.200     13
            1  0  0  1     2.000     14
            0  1  0  1     2.000     15
            0  0  1  1     2.000     16
            1  0  0  1     1.200     17
            0  1  0  1     1.200     18
            0  0  1  1     1.200     19
            1  0  0  1     0.750     20
            0  1  0  1     0.750     21
            0  0  1  1     0.750     22
            2  0  0  0     1.750     23
            1  1  0  0     1.750     24
            1  0  1  0     1.750     25
            0  2  0  0     1.750     26
            0  1  1  0     1.750     27
            0  0  2  0     1.750     28
            3  0  0  0     1.900     29
            2  1  0  0     1.900     30
            2  0  1  0     1.900     31
            1  2  0  0     1.900     32
            1  1  1  0     1.900     33
            1  0  2  0     1.900     34
            0  3  0  0     1.900     35
            0  2  1  0     1.900     36
            0  1  2  0     1.900     37
            0  0  3  0     1.900     38

 C                                    2    3    4    5
                                  ---------------------------------------------------------------------------
            0  0  0  0     7.680     39   69   99  129
            0  0  0  0     5.000     40   70  100  130
            0  0  0  1     1.280     41   71  101  131
            0  0  0  1     2.100     42   72  102  132
            0  0  0  1     4.600     43   73  103  133
            1  0  0  0     0.820     44   74  104  134
            0  1  0  0     0.820     45   75  105  135
            0  0  1  0     0.820     46   76  106  136
            1  0  0  0     1.480     47   77  107  137
            0  1  0  0     1.480     48   78  108  138
            0  0  1  0     1.480     49   79  109  139
            1  0  0  0     2.940     50   80  110  140
            0  1  0  0     2.940     51   81  111  141
            0  0  1  0     2.940     52   82  112  142
            2  0  0  0     2.200     53   83  113  143
            1  1  0  0     2.200     54   84  114  144
            1  0  1  0     2.200     55   85  115  145
            0  2  0  0     2.200     56   86  116  146
            0  1  1  0     2.200     57   87  117  147
            0  0  2  0     2.200     58   88  118  148
            3  0  0  0     3.300     59   89  119  149
            2  1  0  0     3.300     60   90  120  150
            2  0  1  0     3.300     61   91  121  151
            1  2  0  0     3.300     62   92  122  152
            1  1  1  0     3.300     63   93  123  153
            1  0  2  0     3.300     64   94  124  154
            0  3  0  0     3.300     65   95  125  155
            0  2  1  0     3.300     66   96  126  156
            0  1  2  0     3.300     67   97  127  157
            0  0  3  0     3.300     68   98  128  158

 H                                    6    7    8    9   10   11   12   13   14   15   16   17
                                  ---------------------------------------------------------------------------
            0  0  0  0     0.690    159  171  183  195  207  219  231  243  255  267  279  291
            0  0  0  0     0.920    160  172  184  196  208  220  232  244  256  268  280  292
            0  0  0  0     1.580    161  173  185  197  209  221  233  245  257  269  281  293
            1  0  0  0     1.250    162  174  186  198  210  222  234  246  258  270  282  294
            0  1  0  0     1.250    163  175  187  199  211  223  235  247  259  271  283  295
            0  0  1  0     1.250    164  176  188  200  212  224  236  248  260  272  284  296
            2  0  0  0     2.500    165  177  189  201  213  225  237  249  261  273  285  297
            1  1  0  0     2.500    166  178  190  202  214  226  238  250  262  274  286  298
            1  0  1  0     2.500    167  179  191  203  215  227  239  251  263  275  287  299
            0  2  0  0     2.500    168  180  192  204  216  228  240  252  264  276  288  300
            0  1  1  0     2.500    169  181  193  205  217  229  241  253  265  277  289  301
            0  0  2  0     2.500    170  182  194  206  218  230  242  254  266  278  290  302

 Total number of charge fitting functions (nprimf)      1042
 Total number of Cartesian basis functions (naos)        302
 Total number of Cartesian core functions  (ncos)          0

1
 ***************************************************************************************************



                                              ***********************
                                              *  T E C H N I C A L  *
                                              ***********************
  



 =============================================================
 P A R A L L E L I Z A T I O N  and  V E C T O R I Z A T I O N
 =============================================================
  
 Nr of parallel processes:                               12
 Maximum vector length in NumInt loops:                 128



 =====================
 S C F   U P D A T E S
 =====================
  
 Max. nr. of cycles:                               300
 Convergence criterion:                              0.0000010000
   secondary criterion:                              0.0010000000

 Mix parameter (when DIIS does not apply):           0.2000000000
 Mixed ADIIS+SDIIS will be used                  
    Max number of expansion vectors:                10
    Pure ADIIS when Max([F,P]) is above              0.1000000000
    Pure SDIIS when Max([F,P]) is below              0.0010000000
 Automatic ElectronSmearing (in case of problematic SCF convergence) disabled



 =================
 P R E C I S I O N  ***  (General: NumInt, NeglectFunctionTails, ...)  ***
 =================
  

 NumInt:           Target precision:                 6.0000000000
 -------           Initial precision:                6.0000000000
                   Min. precision (optimization):    6.0000000000

 Neglect Functions:          Basis functions:        0.1000000000E-07
 ------------------          Fit functions:          0.1000000000E-07



 ===========================
 L I N E A R   S C A L I N G
 ===========================
  

 Cut-off radii density fit:                        0.1000000000E-09
 Overlap cut-off criterion AO matrix elements:     0.1000000000E-07
 Cut-offs for Coulomb potential and fitted density:0.1000000000E-09
 Cut-off criterion for Coulomb multipole terms:    0.1000000000E-09
 Progressive Convergence parameter:                 0.000000000    

 Number of elements of the density matrix on this node (used, total):      4251     45753



 ===========================================
 Numerical Integration : Fuzzy Cells (Becke)
 ===========================================
  
 Becke grid quality: GOOD           
  
 Lebedev angular grid order:             min:  11 max:  35
 Nr. of radial points:                   min:  54 max:  72

 Total nr. of points:     212091
 Nr. of blocks:             1657
 Block length:               128
 Nr. of dummy points:          5


 Test of Precision of the Numerical Integration Grid
 ===================================================

 Integral of the Total Core Density:                   0.00000000000000


 -------------------------------------------
  COSMO surface
  Area             =          529.071
  Volume           =          984.038
  Number of Points =         1216
 -------------------------------------------



 ========================
 Density Fitting (zlmFit)
 ========================
  
 ZlmFit Fit Quality: GOOD           
  
 Max L-expansion:                        min:   8 max:  10
 Nr. of radial interpolation points:     min:  78 max: 114



 ======================
 RI Hartree-Fock Scheme
 ======================
  
 Fit Set Quality     : GOOD
 Integration Quality : GOOD
 Threshold Quality   : GOOD
 Response Quality    : DEFAULT
 Is Range Separated  :  F
 
 RIHartreeFock Dependency: number of modified vectors:          13



 =====
 S C F  ***  ScaSCF  ***
 =====
  
 Initial density matrix is taken from previous geometry

 CYCLE    1
  ***********************************************************
  ** : orbital data taken from :/tmp/amstmp_ams_kid0.692747465/GOStep2.rkf
  ***********************************************************
 SCF Error: norm([F,P])=      0.014268439952, max([F,P])=      0.001644611860
 orbitals (Q,E):
 ---------------
 A :16...35          ( 2.00    -0.4257)  ( 2.00    -0.4257)  ( 2.00    -0.4094)  ( 2.00    -0.4094)
                     ( 2.00    -0.3904)  ( 2.00    -0.3904)  ( 2.00    -0.3904)  ( 2.00    -0.3063)
                     ( 2.00    -0.3063)  ( 2.00    -0.3063)  ( 0.00     0.0100)  ( 0.00     0.0485)
                     ( 0.00     0.0486)  ( 0.00     0.0486)  ( 0.00     0.0709)  ( 0.00     0.0709)
                     ( 0.00     0.0709)  ( 0.00     0.1065)  ( 0.00     0.1065)  ( 0.00     0.1310)

 CYCLE    2
  SDIIS (wt  0.000):  0.5599  0.4401
 A-DIIS (wt  1.000):  0.5756  0.4244
  DIIS coefficients:  0.5756  0.4244
 SCF Error: norm([F,P])=      0.017968002526, max([F,P])=      0.002006703129
 orbitals (Q,E):
 ---------------
 A :16...26          ( 2.00    -0.4250)  ( 2.00    -0.4250)  ( 2.00    -0.4088)  ( 2.00    -0.4088)
                     ( 2.00    -0.3898)  ( 2.00    -0.3898)  ( 2.00    -0.3898)  ( 2.00    -0.3056)
                     ( 2.00    -0.3056)  ( 2.00    -0.3055)  ( 0.00     0.0116)

 CYCLE    3
  SDIIS (wt  0.000):  0.3893  0.1094  0.5013
 A-DIIS (wt  1.000):  0.2613  0.0000  0.7387
  DIIS coefficients:  0.2613  0.0000  0.7387
 SCF Error: norm([F,P])=      0.007660466865, max([F,P])=      0.000918554692
 orbitals (Q,E):
 ---------------
 A :16...26          ( 2.00    -0.4241)  ( 2.00    -0.4241)  ( 2.00    -0.4079)  ( 2.00    -0.4079)
                     ( 2.00    -0.3889)  ( 2.00    -0.3889)  ( 2.00    -0.3889)  ( 2.00    -0.3050)
                     ( 2.00    -0.3049)  ( 2.00    -0.3049)  ( 0.00     0.0129)

 CYCLE    4
  SDIIS (wt  1.000): -0.1515 -0.4006  1.5520
[...]
                              -0.544     0.489     0.682
                        -----------------------------------
 
================================================================================
 
 
===  TOTAL NMR SHIELDING TENSOR (ppm)
 
                        ***********************************
                        CARTESIAN AXIS REPRESENTATION

                        ==== total shielding tensor
                        -----------------------------------
                              33.607    -1.777    -4.673
                              -1.777    28.890     0.431
                              -4.673     0.431    32.130
                        -----------------------------------
                                  isotropic =     31.542

                        ***********************************
                        -----------------------------------
                        PRINCIPAL AXIS REPRESENTATION

                        ==== Principal components:

                              27.520    29.210    37.897
 
                        ==== Principal Axis System:

                               0.591    -0.276     0.758
                               0.596     0.783    -0.180
                               0.544    -0.558    -0.627
                        -----------------------------------
################################################################################
********************************************************************************
****  N U C L E U S : H(15)
 
 ADF-GUI atom: H(15)
 Internal NMR numbering of atoms: H(15)
 
 
================================================================================
 
 
===  PARAMAGNETIC NMR SHIELDING TENSORS (ppm)
 
    ===     paramagnetic b^(1) tensor       ===     paramagnetic u^(1) tensor
    -----------------------------------     -----------------------------------
           0.000     0.000     0.000               8.237     0.184    -2.281
           0.000     0.000     0.000               0.184     5.860    -1.126
           0.000     0.000     0.000              -2.281    -1.126   -16.929
    -----------------------------------     -----------------------------------
              isotropic =      0.000                  isotropic =     -0.944

    ===     paramagnetic s^(1) tensor       ===     paramagnetic gauge tensor
    -----------------------------------     -----------------------------------
          -7.574    -0.292     1.851               1.734    -0.005    -0.177
          -0.292    -4.546     1.158              -0.005     1.716    -0.078
           1.851     1.158    20.473              -0.177    -0.078     0.187
    -----------------------------------     -----------------------------------
              isotropic =      2.784                  isotropic =      1.213

                        ***********************************
                        CARTESIAN AXIS REPRESENTATION

                        ==== total paramagnetic tensor
                        -----------------------------------
                               2.397    -0.112    -0.608
                              -0.112     3.030    -0.046
                              -0.608    -0.046     3.732
                        -----------------------------------
                                  isotropic =      3.053

                        ***********************************
                        -----------------------------------
                        PRINCIPAL AXIS REPRESENTATION

                        ==== Principal components:

                               2.145     3.047     3.967
 
                        ==== Principal Axis System:

                              -0.924     0.128    -0.361
                              -0.136    -0.991    -0.003
                              -0.358     0.046     0.933
                        -----------------------------------
 
================================================================================
 
 
===  DIAMAGNETIC NMR SHIELDING TENSORS (ppm)
 
    ===       diamagnetic core tensor       ===    diamagnetic valence tensor
    -----------------------------------     -----------------------------------
           0.000     0.000     0.000              27.251     0.429     2.521
           0.000     0.000     0.000               0.429    24.532     0.646
           0.000     0.000     0.000               2.521     0.646    33.673
    -----------------------------------     -----------------------------------
              isotropic =      0.000                  isotropic =     28.485

                        ***********************************
                        CARTESIAN AXIS REPRESENTATION

                        ==== total diamagnetic tensor
                        -----------------------------------
                              27.251     0.429     2.521
                               0.429    24.532     0.646
                               2.521     0.646    33.673
                        -----------------------------------
                                  isotropic =     28.485

                        ***********************************
                        -----------------------------------
                        PRINCIPAL AXIS REPRESENTATION

                        ==== Principal components:

                              24.456    26.399    34.600
 
                        ==== Principal Axis System:

                               0.119    -0.937     0.327
                              -0.992    -0.100     0.074
                               0.037     0.334     0.942
                        -----------------------------------
 
================================================================================
 
 
===  TOTAL NMR SHIELDING TENSOR (ppm)
 
                        ***********************************
                        CARTESIAN AXIS REPRESENTATION

                        ==== total shielding tensor
                        -----------------------------------
                              29.648     0.316     1.914
                               0.316    27.562     0.600
                               1.914     0.600    37.404
                        -----------------------------------
                                  isotropic =     31.538

                        ***********************************
                        -----------------------------------
                        PRINCIPAL AXIS REPRESENTATION

                        ==== Principal components:

                              27.503    29.219    37.893
 
                        ==== Principal Axis System:

                               0.112    -0.967     0.228
                              -0.993    -0.100     0.063
                               0.038     0.233     0.972
                        -----------------------------------
################################################################################
********************************************************************************
****  N U C L E U S : H(16)
 
 ADF-GUI atom: H(16)
 Internal NMR numbering of atoms: H(16)
 
 
================================================================================
 
 
===  PARAMAGNETIC NMR SHIELDING TENSORS (ppm)
 
    ===     paramagnetic b^(1) tensor       ===     paramagnetic u^(1) tensor
    -----------------------------------     -----------------------------------
           0.000     0.000     0.000              -8.641    10.147     4.700
           0.000     0.000     0.000              10.147     0.007    -4.600
           0.000     0.000     0.000               4.700    -4.600     5.790
    -----------------------------------     -----------------------------------
              isotropic =      0.000                  isotropic =     -0.948

    ===     paramagnetic s^(1) tensor       ===     paramagnetic gauge tensor
    -----------------------------------     -----------------------------------
          11.452   -10.837    -5.558               0.745     0.687     0.307
         -10.837     1.290     5.381               0.687     1.251    -0.235
          -5.558     5.381    -4.405               0.307    -0.235     1.643
    -----------------------------------     -----------------------------------
              isotropic =      2.779                  isotropic =      1.213

                        ***********************************
                        CARTESIAN AXIS REPRESENTATION

                        ==== total paramagnetic tensor
                        -----------------------------------
                               3.556    -0.004    -0.551
                              -0.004     2.547     0.546
                              -0.551     0.546     3.027
                        -----------------------------------
                                  isotropic =      3.043

                        ***********************************
                        -----------------------------------
                        PRINCIPAL AXIS REPRESENTATION

                        ==== Principal components:

                               2.120     3.039     3.971
 
                        ==== Principal Axis System:

                               0.229     0.585     0.778
                              -0.766     0.601    -0.227
                               0.600     0.545    -0.585
                        -----------------------------------
 
================================================================================
 
 
===  DIAMAGNETIC NMR SHIELDING TENSORS (ppm)
 
    ===       diamagnetic core tensor       ===    diamagnetic valence tensor
    -----------------------------------     -----------------------------------
           0.000     0.000     0.000              30.194    -4.747    -1.046
           0.000     0.000     0.000              -4.747    29.400    -0.246
           0.000     0.000     0.000              -1.046    -0.246    25.863
    -----------------------------------     -----------------------------------
              isotropic =      0.000                  isotropic =     28.486

                        ***********************************
                        CARTESIAN AXIS REPRESENTATION

                        ==== total diamagnetic tensor
                        -----------------------------------
                              30.194    -4.747    -1.046
                              -4.747    29.400    -0.246
                              -1.046    -0.246    25.863
                        -----------------------------------
                                  isotropic =     28.486

                        ***********************************
                        -----------------------------------
                        PRINCIPAL AXIS REPRESENTATION

                        ==== Principal components:

                              24.456    26.398    34.603
 
                        ==== Principal Axis System:

                              -0.592    -0.324     0.739
                              -0.595    -0.443    -0.671
                              -0.544     0.836    -0.070
                        -----------------------------------
 
================================================================================
 
 
===  TOTAL NMR SHIELDING TENSOR (ppm)
 
                        ***********************************
                        CARTESIAN AXIS REPRESENTATION

                        ==== total shielding tensor
                        -----------------------------------
                              33.749    -4.751    -1.597
                              -4.751    31.947     0.300
                              -1.597     0.300    28.890
                        -----------------------------------
                                  isotropic =     31.529

                        ***********************************
                        -----------------------------------
                        PRINCIPAL AXIS REPRESENTATION

                        ==== Principal components:

                              27.495    29.182    37.909
 
                        ==== Principal Axis System:

                               0.590    -0.247     0.769
                               0.593    -0.514    -0.620
                               0.548     0.822    -0.157
                        -----------------------------------
################################################################################
********************************************************************************
****  N U C L E U S : H(17)
 
 ADF-GUI atom: H(17)
 Internal NMR numbering of atoms: H(17)
 
 
================================================================================
 
 
===  PARAMAGNETIC NMR SHIELDING TENSORS (ppm)
 
    ===     paramagnetic b^(1) tensor       ===     paramagnetic u^(1) tensor
    -----------------------------------     -----------------------------------
           0.000     0.000     0.000              -3.572   -10.831     4.275
           0.000     0.000     0.000             -10.831    -4.205     6.192
           0.000     0.000     0.000               4.275     6.192     5.140
    -----------------------------------     -----------------------------------
              isotropic =      0.000                  isotropic =     -0.879

    ===     paramagnetic s^(1) tensor       ===     paramagnetic gauge tensor
    -----------------------------------     -----------------------------------
           6.004    11.651    -4.895               1.084    -0.708     0.260
          11.651     5.887    -7.196              -0.708     0.944     0.359
          -4.895    -7.196    -3.410               0.260     0.359     1.546
    -----------------------------------     -----------------------------------
              isotropic =      2.827                  isotropic =      1.191

                        ***********************************
                        CARTESIAN AXIS REPRESENTATION

                        ==== total paramagnetic tensor
                        -----------------------------------
                               3.516     0.113    -0.360
                               0.113     2.625    -0.645
                              -0.360    -0.645     3.275
                        -----------------------------------
                                  isotropic =      3.139

                        ***********************************
                        -----------------------------------
                        PRINCIPAL AXIS REPRESENTATION

                        ==== Principal components:

                               2.221     3.226     3.970
 
                        ==== Principal Axis System:

                              -0.077     0.772    -0.631
                              -0.839    -0.392    -0.378
                              -0.539     0.500     0.678
                        -----------------------------------
 
================================================================================
 
 
===  DIAMAGNETIC NMR SHIELDING TENSORS (ppm)
 
    ===       diamagnetic core tensor       ===    diamagnetic valence tensor
    -----------------------------------     -----------------------------------
           0.000     0.000     0.000              27.995     4.307    -1.380
           0.000     0.000     0.000               4.307    31.596    -0.390
           0.000     0.000     0.000              -1.380    -0.390    25.872
    -----------------------------------     -----------------------------------
              isotropic =      0.000                  isotropic =     28.488

                        ***********************************
                        CARTESIAN AXIS REPRESENTATION

                        ==== total diamagnetic tensor
                        -----------------------------------
                              27.995     4.307    -1.380
                               4.307    31.596    -0.390
                              -1.380    -0.390    25.872
                        -----------------------------------
                                  isotropic =     28.488

                        ***********************************
                        -----------------------------------
                        PRINCIPAL AXIS REPRESENTATION

                        ==== Principal components:

                              24.456    26.405    34.601
 
                        ==== Principal Axis System:

                               0.710    -0.427    -0.560
                              -0.396     0.415    -0.819
                               0.582     0.803     0.125
                        -----------------------------------
 
================================================================================
 
 
===  TOTAL NMR SHIELDING TENSOR (ppm)
 
                        ***********************************
                        CARTESIAN AXIS REPRESENTATION

                        ==== total shielding tensor
                        -----------------------------------
                              31.511     4.420    -1.740
                               4.420    34.221    -1.035
                              -1.740    -1.035    29.148
                        -----------------------------------
                                  isotropic =     31.627

                        ***********************************
                        -----------------------------------
                        PRINCIPAL AXIS REPRESENTATION

                        ==== Principal components:

                              27.688    29.302    37.890
 
                        ==== Principal Axis System:

                               0.717    -0.363    -0.595
                              -0.394     0.493    -0.776
                               0.575     0.791     0.210
                        -----------------------------------
 *******************************************************************************

                             N M R   E X I T
 NORMAL TERMINATION



 =================
 Timing Statistics
 =================
  
 Total Used :                     CPU=      163.17      System=        3.02     Elapsed=      172.30

 Calls  Section                     ( Mean, Percentage )
 ---------------------------------------------------------------------------------------------------
     3  ><      ................      0.00    0.00             0.00    0.03             0.00    0.01
     1  INIT    ................      0.55    0.34             0.02    0.81             0.58    0.33
     1  RDEIGX  ................     40.11   24.58             0.51   16.93            41.75   24.23
     1  AOF1K   ................      3.13    1.92             0.03    0.99             3.18    1.85
    16  AOPKK   ................      3.24   31.72             0.14   74.53             3.55   32.95
    16  XSIGP   ................      0.01    0.13             0.00    0.30             0.02    0.15
    16  AODKKK  ................      4.21   41.26             0.01    5.88             4.35   40.43
    16  XDV     ................      0.00    0.04             0.00    0.25             0.00    0.04
    16  XSIGD   ................      0.00    0.00             0.00    0.00             0.00    0.00
     1  EXIT PROCEDURE .........      0.00    0.00             0.01    0.27             0.02    0.01


 Currently Open Files (EXIT00)
 ====================

 Unit    Access Format  Status   Type       Ident (file)
 -------------------------------------------------------
   3      SEQ    FORM   TRANSP  NORMAL      LOGFILE
                                          ( /home/milias/Work/projects/open-collection/theoretical_chemistry/projects/nmr_diplomovky/reference_compounds/tetramethylsilane/ams/pbe0_tz2p_good/cosmo-acetone/TMS.geopt_freq_nmrshield_pbe0_tz2p_good_cosmo-acetone.logfile )
