 argument  1 = /home/milias/Work/open-collection/theoretical_chemistry/projects/nmr_diplomovky/reference_compounds/tetramethylsilane/nwchem/cosmo-h2o/TMS.geoptfreq_nmrshield_b3lyp_6-311++g2d_2p_cosmo-h2o.nw
 


============================== echo of input deck ==============================
echo

start molecule

memory total 40 gb
print low

title "TMS"
charge 0

geometry units angstroms print xyz autosym
  load format xyz TMS.start_geom.xyz
end

basis
  * library 6-311++G(2d,2p)
end

dft
  grid huge
  xc b3lyp
  mult 1
  noprint "final vectors analysis"
end

driver
  clear
  tight
  linopt 0
  maxiter 999
  xyz TMS_geom
end

property
  giao
  shielding
end

cosmo
  solvent h2o
end

task dft optimize
task dft freq
task dft property

================================================================================


                                         
                                         
 
 
             Northwest Computational Chemistry Package (NWChem) 7.0.1
             --------------------------------------------------------
 
 
                    Environmental Molecular Sciences Laboratory
                       Pacific Northwest National Laboratory
                                Richland, WA 99352
 
                              Copyright (c) 1994-2020
                       Pacific Northwest National Laboratory
                            Battelle Memorial Institute
 
             NWChem is an open-source computational chemistry package
                        distributed under the terms of the
                      Educational Community License (ECL) 2.0
             A copy of the license is included with this distribution
                              in the LICENSE.TXT file
 
                                  ACKNOWLEDGMENT
                                  --------------

            This software and its documentation were developed at the
            EMSL at Pacific Northwest National Laboratory, a multiprogram
            national laboratory, operated for the U.S. Department of Energy
            by Battelle under Contract Number DE-AC05-76RL01830. Support
            for this work was provided by the Department of Energy Office
            of Biological and Environmental Research, Office of Basic
            Energy Sciences, and the Office of Advanced Scientific Computing.


           Job information
           ---------------

    hostname        = comp13
    program         = /home/milias/Work/qch/software/nwchem_suite/nwchem_master/bin/LINUX64/nwchem
    date            = Wed Mar  3 21:30:10 2021

    compiled        = Sun_Jan_31_23:21:07_2021
    source          = /home/milias/Work/qch/software/nwchem_suite/nwchem_master
    nwchem branch   = 7.0.0
    nwchem revision = nwchem_on_git-2308-gc943026
    ga revision     = 5.8.0
    use scalapack   = F
    input           = /home/milias/Work/open-collection/theoretical_chemistry/projects/nmr_diplomovky/reference_compounds/tetramethylsilane/nwchem/cosmo-h2o/TMS.geoptfreq_nmrshield_b3lyp_6-311++g2d_2p_cosmo-h2o.nw
    prefix          = molecule.
    data base       = ./molecule.db
    status          = startup
    nproc           =       12
    time left       =     -1s



           Memory information
           ------------------

    heap     = 1342177278 doubles =  10240.0 Mbytes
    stack    = 1342177275 doubles =  10240.0 Mbytes
    global   = 2684354560 doubles =  20480.0 Mbytes (distinct from heap & stack)
    total    = 5368709113 doubles =  40960.0 Mbytes
    verify   = yes
    hardfail = no 


           Directory information
           ---------------------
 
  0 permanent = .
  0 scratch   = .
 
 
 
 
                                NWChem Input Module
                                -------------------
 
 
                                        TMS
                                        ---

 Scaling coordinates for geometry "geometry" by  1.889725989
 (inverse scale =  0.529177249)


          ------
          auto-z
          ------
  no constraints, skipping   0.000000000000000E+000
  no constraints, skipping   0.000000000000000E+000
 
 
                             Geometry "geometry" -> ""
                             -------------------------
 
 Output coordinates in angstroms (scale by  1.889725989 to convert to a.u.)
 
  No.       Tag          Charge          X              Y              Z
 ---- ---------------- ---------- -------------- -------------- --------------
    1 Si                  14.0000     0.00053982     0.00011211     0.00005914
    2 C                    6.0000     0.89173969     1.51920747     0.67536498
    3 C                    6.0000     1.26345243    -1.20616399    -0.71277712
    4 C                    6.0000    -1.20096681     0.52762977    -1.35504608
    5 C                    6.0000    -0.95461103    -0.84099863     1.39252850
    6 H                    1.0000     0.18240711     2.23932798     1.08820062
    7 H                    1.0000     1.59032937     1.24624069     1.46874614
    8 H                    1.0000     1.45921479     2.02313787    -0.10961188
    9 H                    1.0000     1.82751388    -0.74942009    -1.52838467
   10 H                    1.0000     1.97726258    -1.52392794     0.04987797
   11 H                    1.0000     0.77363281    -2.09991276    -1.10454023
   12 H                    1.0000    -1.74035890    -0.33186404    -1.75811552
   13 H                    1.0000    -1.93893465     1.23450893    -0.97041195
   14 H                    1.0000    -0.67542987     1.01003906    -2.18146852
   15 H                    1.0000    -1.47890054    -1.72643326     1.02760149
   16 H                    1.0000    -0.28458741    -1.15557228     2.19495153
   17 H                    1.0000    -1.69739238    -0.16574147     1.82190543
 
      Atomic Mass 
      ----------- 
 
      Si                27.976930
      C                 12.000000
      H                  1.007825
 

 Effective nuclear repulsion energy (a.u.)     245.4526784663

            Nuclear Dipole moment (a.u.) 
            ----------------------------
        X                 Y               Z
 ---------------- ---------------- ----------------
     0.0000000000    -0.0000000000     0.0000000000
 


                                Z-matrix (autoz)
                                -------- 

 Units are Angstrom for bonds and degrees for angles
 
      Type          Name      I     J     K     L     M      Value
      ----------- --------  ----- ----- ----- ----- ----- ----------
    1 Stretch                  1     2                       1.88625
    2 Stretch                  1     3                       1.88632
    3 Stretch                  1     4                       1.88632
    4 Stretch                  1     5                       1.88647
    5 Stretch                  2     6                       1.09186
    6 Stretch                  2     7                       1.09178
    7 Stretch                  2     8                       1.09186
    8 Stretch                  3     9                       1.09179
    9 Stretch                  3    10                       1.09185
   10 Stretch                  3    11                       1.09187
   11 Stretch                  4    12                       1.09185
   12 Stretch                  4    13                       1.09189
   13 Stretch                  4    14                       1.09173
   14 Stretch                  5    15                       1.09181
   15 Stretch                  5    16                       1.09168
   16 Stretch                  5    17                       1.09182
   17 Bend                     1     2     6               111.07451
   18 Bend                     1     2     7               111.16943
   19 Bend                     1     2     8               111.09200
   20 Bend                     1     3     9               111.14174
   21 Bend                     1     3    10               111.09109
   22 Bend                     1     3    11               111.01997
   23 Bend                     1     4    12               111.08343
   24 Bend                     1     4    13               111.00693
   25 Bend                     1     4    14               111.14683
   26 Bend                     1     5    15               110.97791
   27 Bend                     1     5    16               111.11736
   28 Bend                     1     5    17               111.03803
   29 Bend                     2     1     3               109.51059
   30 Bend                     2     1     4               109.44598
   31 Bend                     2     1     5               109.51396
   32 Bend                     3     1     4               109.50020
   33 Bend                     3     1     5               109.43889
   34 Bend                     4     1     5               109.41767
   35 Bend                     6     2     7               107.80774
   36 Bend                     6     2     8               107.76297
   37 Bend                     7     2     8               107.77463
   38 Bend                     9     3    10               107.80613
   39 Bend                     9     3    11               107.82831
   40 Bend                    10     3    11               107.79889
   41 Bend                    12     4    13               107.80481
   42 Bend                    12     4    14               107.83033
   43 Bend                    13     4    14               107.81466
   44 Bend                    15     5    16               107.86145
   45 Bend                    15     5    17               107.83785
   46 Bend                    16     5    17               107.86030
   47 Torsion                  2     1     3     9         -60.41647
   48 Torsion                  2     1     3    10          59.62020
   49 Torsion                  2     1     3    11         179.56642
   50 Torsion                  2     1     4    12        -179.38434
   51 Torsion                  2     1     4    13         -59.44444
   52 Torsion                  2     1     4    14          60.55012
   53 Torsion                  2     1     5    15        -179.88028
   54 Torsion                  2     1     5    16         -59.86568
   55 Torsion                  2     1     5    17          60.18763
   56 Torsion                  3     1     2     6         179.56252
   57 Torsion                  3     1     2     7         -60.39135
   58 Torsion                  3     1     2     8          59.62466
   59 Torsion                  3     1     4    12          60.56515
   60 Torsion                  3     1     4    13        -179.49495
   61 Torsion                  3     1     4    14         -59.50039
   62 Torsion                  3     1     5    15         -59.82569
   63 Torsion                  3     1     5    16          60.18891
   64 Torsion                  3     1     5    17        -179.75778
   65 Torsion                  4     1     2     6          59.51837
   66 Torsion                  4     1     2     7         179.56450
   67 Torsion                  4     1     2     8         -60.41949
   68 Torsion                  4     1     3     9          59.59450
   69 Torsion                  4     1     3    10         179.63118
   70 Torsion                  4     1     3    11         -60.42261
   71 Torsion                  4     1     5    15          60.15727
   72 Torsion                  4     1     5    16        -179.82812
   73 Torsion                  4     1     5    17         -59.77482
   74 Torsion                  5     1     2     6         -60.42675
   75 Torsion                  5     1     2     7          59.61938
   76 Torsion                  5     1     2     8         179.63539
   77 Torsion                  5     1     3     9         179.52687
   78 Torsion                  5     1     3    10         -60.43645
   79 Torsion                  5     1     3    11          59.50977
   80 Torsion                  5     1     4    12         -59.38022
   81 Torsion                  5     1     4    13          60.55968
   82 Torsion                  5     1     4    14        -179.44576
 
 
            XYZ format geometry
            -------------------
    17
 geometry
 Si                    0.00053982     0.00011211     0.00005914
 C                     0.89173969     1.51920747     0.67536498
 C                     1.26345243    -1.20616399    -0.71277712
 C                    -1.20096681     0.52762977    -1.35504608
 C                    -0.95461103    -0.84099863     1.39252850
 H                     0.18240711     2.23932798     1.08820062
 H                     1.59032937     1.24624069     1.46874614
 H                     1.45921479     2.02313787    -0.10961188
 H                     1.82751388    -0.74942009    -1.52838467
 H                     1.97726258    -1.52392794     0.04987797
 H                     0.77363281    -2.09991276    -1.10454023
 H                    -1.74035890    -0.33186404    -1.75811552
 H                    -1.93893465     1.23450893    -0.97041195
 H                    -0.67542987     1.01003906    -2.18146852
 H                    -1.47890054    -1.72643326     1.02760149
 H                    -0.28458741    -1.15557228     2.19495153
 H                    -1.69739238    -0.16574147     1.82190543
 
 ==============================================================================
                                internuclear distances
 ------------------------------------------------------------------------------
       center one      |      center two      | atomic units |  angstroms
 ------------------------------------------------------------------------------
    2 C                |   1 Si               |     3.56449  |     1.88625
    3 C                |   1 Si               |     3.56462  |     1.88632
    4 C                |   1 Si               |     3.56463  |     1.88632
    5 C                |   1 Si               |     3.56490  |     1.88647
    6 H                |   2 C                |     2.06332  |     1.09186
    7 H                |   2 C                |     2.06317  |     1.09178
    8 H                |   2 C                |     2.06332  |     1.09186
    9 H                |   3 C                |     2.06318  |     1.09179
   10 H                |   3 C                |     2.06330  |     1.09185
   11 H                |   3 C                |     2.06334  |     1.09187
   12 H                |   4 C                |     2.06330  |     1.09185
   13 H                |   4 C                |     2.06337  |     1.09189
   14 H                |   4 C                |     2.06308  |     1.09173
   15 H                |   5 C                |     2.06322  |     1.09181
   16 H                |   5 C                |     2.06298  |     1.09168
   17 H                |   5 C                |     2.06323  |     1.09182
 ------------------------------------------------------------------------------
                         number of included internuclear distances:         16
 ==============================================================================



 ==============================================================================
                                 internuclear angles
 ------------------------------------------------------------------------------
        center 1       |       center 2       |       center 3       |  degrees
 ------------------------------------------------------------------------------
    2 C                |   1 Si               |   3 C                |   109.51
    2 C                |   1 Si               |   4 C                |   109.45
    2 C                |   1 Si               |   5 C                |   109.51
    3 C                |   1 Si               |   4 C                |   109.50
    3 C                |   1 Si               |   5 C                |   109.44
    4 C                |   1 Si               |   5 C                |   109.42
    1 Si               |   2 C                |   6 H                |   111.07
    1 Si               |   2 C                |   7 H                |   111.17
    1 Si               |   2 C                |   8 H                |   111.09
    6 H                |   2 C                |   7 H                |   107.81
    6 H                |   2 C                |   8 H                |   107.76
    7 H                |   2 C                |   8 H                |   107.77
    1 Si               |   3 C                |   9 H                |   111.14
    1 Si               |   3 C                |  10 H                |   111.09
    1 Si               |   3 C                |  11 H                |   111.02
    9 H                |   3 C                |  10 H                |   107.81
    9 H                |   3 C                |  11 H                |   107.83
   10 H                |   3 C                |  11 H                |   107.80
    1 Si               |   4 C                |  12 H                |   111.08
    1 Si               |   4 C                |  13 H                |   111.01
    1 Si               |   4 C                |  14 H                |   111.15
   12 H                |   4 C                |  13 H                |   107.80
   12 H                |   4 C                |  14 H                |   107.83
   13 H                |   4 C                |  14 H                |   107.81
    1 Si               |   5 C                |  15 H                |   110.98
    1 Si               |   5 C                |  16 H                |   111.12
    1 Si               |   5 C                |  17 H                |   111.04
   15 H                |   5 C                |  16 H                |   107.86
   15 H                |   5 C                |  17 H                |   107.84
   16 H                |   5 C                |  17 H                |   107.86
 ------------------------------------------------------------------------------
                            number of included internuclear angles:         30
 ==============================================================================



  library name resolved from: environment
  library file name is: </usr/share/nwchem/libraries/>
  


 Summary of "ao basis" -> "" (cartesian)
 ------------------------------------------------------------------------------
       Tag                 Description            Shells   Functions and Types
 ---------------- ------------------------------  ------  ---------------------
 *                      6-311++G(2d,2p)               on all atoms 


 
  Deleted DRIVER restart files 
 
 
 
                           NWChem Geometry Optimization
                           ----------------------------
 
 
 
 
                                        TMS
 
 
  no constraints, skipping   0.000000000000000E+000
 maximum gradient threshold         (gmax) =   0.000015
 rms gradient threshold             (grms) =   0.000010
 maximum cartesian step threshold   (xmax) =   0.000060
 rms cartesian step threshold       (xrms) =   0.000040
 fixed trust radius                (trust) =   0.300000
 maximum step size to saddle      (sadstp) =   0.100000
 energy precision                  (eprec) =   5.0D-06
 maximum number of steps          (nptopt) =  999
 initial hessian option           (inhess) =    0
 line search option               (linopt) =    0
 hessian update option            (modupd) =    1
 saddle point option              (modsad) =    0
 initial eigen-mode to follow     (moddir) =    0
 initial variable to follow       (vardir) =    0
 follow first negative mode     (firstneg) =    T
 apply conjugacy                    (opcg) =    F
 source of zmatrix                         =   autoz   


          -------------------
          Energy Minimization
          -------------------

 
 Names of Z-matrix variables 
    1              2              3              4              5         
    6              7              8              9             10         
   11             12             13             14             15         
   16             17             18             19             20         
   21             22             23             24             25         
   26             27             28             29             30         
   31             32             33             34             35         
   36             37             38             39             40         
   41             42             43             44             45         
   46             47             48             49             50         
   51             52             53             54             55         
   56             57             58             59             60         
   61             62             63             64             65         
   66             67             68             69             70         
   71             72             73             74             75         
   76             77             78             79             80         
   81             82         
 
 Variables with the same non-blank name are constrained to be equal
 
 
 Using diagonal initial Hessian 
 Scaling for Hessian diagonals: bonds = 1.00  angles = 0.25  torsions = 0.10

          --------
          Step   0
          --------
 
                                 NWChem DFT Module
                                 -----------------
 
 
                                        TMS
 
 
                      Basis "ao basis" -> "ao basis" (cartesian)
                      -----
  Si (Silicon)
  ------------
            Exponent  Coefficients 
       -------------- ---------------------------------------------------------
  1 S  6.93792300E+04  0.000757
  1 S  1.03549400E+04  0.005932
  1 S  2.33387960E+03  0.031088
  1 S  6.57142950E+02  0.124967
  1 S  2.14301130E+02  0.386897
  1 S  7.76291680E+01  0.554888
 
  2 S  7.76291680E+01  0.177881
  2 S  3.06308070E+01  0.627765
  2 S  1.28012950E+01  0.247623
 
  3 S  3.92686600E+00  1.000000
 
  4 S  1.45234300E+00  1.000000
 
  5 S  2.56234000E-01  1.000000
 
  6 S  9.42790000E-02  1.000000
 
  7 P  3.35483190E+02  0.008866
  7 P  7.89003660E+01  0.068299
  7 P  2.49881500E+01  0.290958
  7 P  9.21971100E+00  0.732117
 
  8 P  3.62114000E+00  0.619879
  8 P  1.45131000E+00  0.439148
 
  9 P  5.04977000E-01  1.000000
 
 10 P  1.86317000E-01  1.000000
 
 11 P  6.54320000E-02  1.000000
 
 12 S  3.31000000E-02  1.000000
 
 13 P  3.31000000E-02  1.000000
 
 14 D  9.00000000E-01  1.000000
 
 15 D  2.25000000E-01  1.000000
 
  C (Carbon)
  ----------
            Exponent  Coefficients 
       -------------- ---------------------------------------------------------
  1 S  4.56324000E+03  0.001967
  1 S  6.82024000E+02  0.015231
  1 S  1.54973000E+02  0.076127
  1 S  4.44553000E+01  0.260801
  1 S  1.30290000E+01  0.616462
  1 S  1.82773000E+00  0.221006
 
  2 S  2.09642000E+01  0.114660
  2 S  4.80331000E+00  0.919999
  2 S  1.45933000E+00 -0.003031
 
  3 P  2.09642000E+01  0.040249
  3 P  4.80331000E+00  0.237594
  3 P  1.45933000E+00  0.815854
 
  4 S  4.83456000E-01  1.000000
 
  5 P  4.83456000E-01  1.000000
 
  6 S  1.45585000E-01  1.000000
 
  7 P  1.45585000E-01  1.000000
 
  8 S  4.38000000E-02  1.000000
 
  9 P  4.38000000E-02  1.000000
 
 10 D  1.25200000E+00  1.000000
 
 11 D  3.13000000E-01  1.000000
 
  H (Hydrogen)
  ------------
            Exponent  Coefficients 
       -------------- ---------------------------------------------------------
  1 S  3.38650000E+01  0.025494
  1 S  5.09479000E+00  0.190373
  1 S  1.15879000E+00  0.852161
 
  2 S  3.25840000E-01  1.000000
 
  3 S  1.02741000E-01  1.000000
 
  4 S  3.60000000E-02  1.000000
 
  5 P  1.50000000E+00  1.000000
 
  6 P  3.75000000E-01  1.000000
 


 Summary of "ao basis" -> "ao basis" (cartesian)
 ------------------------------------------------------------------------------
       Tag                 Description            Shells   Functions and Types
 ---------------- ------------------------------  ------  ---------------------
 Si                     6-311++G(2d,2p)             15       37   7s6p2d
 C                      6-311++G(2d,2p)             11       29   5s4p2d
 H                      6-311++G(2d,2p)              6       10   4s2p


 
 
 solvent parameters
 solvname_short: h2o     
 solvname_long:  water                              
 dielec:       78.4000
 dielecinf:     1.7769

          ---------------
          -cosmo- solvent
          ---------------
 Cosmo: York-Karplus, doi: 10.1021/jp992097l
 dielectric constant -eps-     =  78.40
 screen = (eps-1)/(eps    )    =   0.98724
 surface charge correction     = lagrangian
 -lineq- algorithm             =   0
 -bem- low  level              =   2
 -bem- from -octahedral-
 gaussian surface charge width =   0.98000
 degree of switching           =   1.00000
 switching function tolerance  =   0.00010
 atomic radii = 
 --------------
    1 14.000  2.457
    2  6.000  2.000
    3  6.000  2.000
    4  6.000  2.000
    5  6.000  2.000
    6  1.000  1.300
    7  1.000  1.300
    8  1.000  1.300
    9  1.000  1.300
   10  1.000  1.300
   11  1.000  1.300
   12  1.000  1.300
   13  1.000  1.300
   14  1.000  1.300
   15  1.000  1.300
   16  1.000  1.300
   17  1.000  1.300

 solvent accessible surface
 --------------------------

 ---------- ATOMIC COORDINATES (A.U.) ------------ VDWR(ANG.) --
     1    0.00102012    0.00021186    0.00011176     2.457
     2    1.68514367    2.87088583    1.27625475     2.000
     3    2.38757888   -2.27931943   -1.34695345     2.000
     4   -2.26949818    0.99707568   -2.56066580     2.000
     5   -1.80395328   -1.58925697    2.63149730     2.000
     6    0.34469945    4.23171628    2.05640098     1.300
     7    3.00528674    2.35505343    2.77552776     1.300
     8    2.75751611    3.82317621   -0.20713642     1.300
     9    3.45350048   -1.41619862   -2.88822822     1.300
    10    3.73648448   -2.87980622    0.09425569     1.300
    11    1.46195403   -3.96825973   -2.08727838     1.300
    12   -3.28880143   -0.62713211   -3.32235659     1.300
    13   -3.66405519    2.33288361   -1.83381269     1.300
    14   -1.27637738    1.90869706   -4.12237776     1.300
    15   -2.79471679   -3.26248580    1.94188524     1.300
    16   -0.53779222   -2.18371496    4.14785694     1.300
    17   -3.20760650   -0.31320596    3.44290203     1.300
 number of segments per atom =         32
 number of   points per atom =         32
 atom (   nspa,  nppa )
 ----------------------
    1 (     12,     0 )       0
    2 (     16,     0 )       0
    3 (     17,     0 )       0
    4 (     16,     0 )       0
    5 (     14,     0 )       0
    6 (     15,     0 )       0
    7 (     16,     0 )       0
    8 (     16,     0 )       0
    9 (     15,     0 )       0
   10 (     16,     0 )       0
   11 (     13,     0 )       0
   12 (     14,     0 )       0
   13 (     15,     0 )       0
   14 (     13,     0 )       0
   15 (     14,     0 )       0
   16 (     16,     0 )       0
   17 (     15,     0 )       0
 number of -cosmo- surface points =      253
 molecular surface =    158.709 angstrom**2
 molecular volume  =     90.379 angstrom**3
 G(cav/disp)       =      1.654 kcal/mol
 ...... end of -cosmo- initialization ......


  Caching 1-el integrals 
   Time after variat. SCF:      2.7
   Time prior to 1st pass:      2.7


         Total DFT energy =     -449.288129307714
      One electron energy =    -1102.076248005847
           Coulomb energy =      454.614431145390
    Exchange-Corr. energy =      -47.239608724274
 Nuclear repulsion energy =      245.452678466318

             COSMO energy =       -0.039382189300

 Numeric. integr. density =       50.000000059855

     Total iterative time =    428.6s


                                   COSMO solvation results
                                   -----------------------

                 gas phase energy =      -449.286347876105
                 sol phase energy =      -449.288129307714
 (electrostatic) solvation energy =         0.001781431610 (    1.12 kcal/mol)


                         DFT ENERGY GRADIENTS

    atom               coordinates                        gradient
                 x          y          z           x          y          z
   1 Si      0.001020   0.000212   0.000112   -0.000134   0.000154  -0.000044
   2 C       1.685144   2.870886   1.276255   -0.000111  -0.000438   0.000002
   3 C       2.387579  -2.279319  -1.346953   -0.000227   0.000228   0.000106
   4 C      -2.269498   0.997076  -2.560666    0.000318  -0.000096   0.000197
   5 C      -1.803953  -1.589257   2.631497    0.000104  -0.000127  -0.000026
   6 H       0.344699   4.231716   2.056401    0.000179   0.000049  -0.000118
   7 H       3.005287   2.355053   2.775528    0.000003   0.000259  -0.000077
   8 H       2.757516   3.823176  -0.207136   -0.000001   0.000180   0.000228
   9 H       3.453500  -1.416199  -2.888228   -0.000000  -0.000288   0.000051
  10 H       3.736484  -2.879806   0.094256    0.000087  -0.000013  -0.000155
  11 H       1.461954  -3.968260  -2.087278    0.000244  -0.000017  -0.000052
  12 H      -3.288801  -0.627132  -3.322357   -0.000069   0.000132  -0.000059
  13 H      -3.664055   2.332884  -1.833813    0.000079  -0.000009  -0.000173
  14 H      -1.276377   1.908697  -4.122378   -0.000303  -0.000030   0.000003
  15 H      -2.794717  -3.262486   1.941885   -0.000023   0.000094   0.000108
  16 H      -0.537792  -2.183715   4.147857   -0.000166   0.000073  -0.000018
  17 H      -3.207606  -0.313206   3.442902    0.000018  -0.000149   0.000028
 
  no constraints, skipping   0.000000000000000E+000

@ Step       Energy      Delta E   Gmax     Grms     Xrms     Xmax   Walltime
@ ---- ---------------- -------- -------- -------- -------- -------- --------
@    0    -449.28812931  0.0D+00  0.00016  0.00007  0.00000  0.00000    521.1
                                                                    

  no constraints, skipping   0.000000000000000E+000
  no constraints, skipping   0.000000000000000E+000
  no constraints, skipping   0.000000000000000E+000
  no constraints, skipping   0.000000000000000E+000
  no constraints, skipping   0.000000000000000E+000
  no constraints, skipping   0.000000000000000E+000
  no constraints, skipping   0.000000000000000E+000
  no constraints, skipping   0.000000000000000E+000

          --------
          Step   1
          --------
 
                                 NWChem DFT Module
                                 -----------------
 
 
                                        TMS
 
 
 
 
 solvent parameters
 solvname_short: h2o     
 solvname_long:  water                              
 dielec:       78.4000
 dielecinf:     1.7769

          ---------------
          -cosmo- solvent
          ---------------
 Cosmo: York-Karplus, doi: 10.1021/jp992097l
 dielectric constant -eps-     =  78.40
 screen = (eps-1)/(eps    )    =   0.98724
 surface charge correction     = lagrangian
 -lineq- algorithm             =   0
 -bem- low  level              =   2
 -bem- from -octahedral-
 gaussian surface charge width =   0.98000
 degree of switching           =   1.00000
 switching function tolerance  =   0.00010
 atomic radii = 
 --------------
    1 14.000  2.457
    2  6.000  2.000
    3  6.000  2.000
    4  6.000  2.000
    5  6.000  2.000
    6  1.000  1.300
    7  1.000  1.300
    8  1.000  1.300
    9  1.000  1.300
   10  1.000  1.300
   11  1.000  1.300
   12  1.000  1.300
   13  1.000  1.300
   14  1.000  1.300
   15  1.000  1.300
   16  1.000  1.300
   17  1.000  1.300

 solvent accessible surface
 --------------------------

 ---------- ATOMIC COORDINATES (A.U.) ------------ VDWR(ANG.) --
     1    0.00100294    0.00030780    0.00021145     2.457
     2    1.68495967    2.87086086    1.27624836     2.000
     3    2.38736022   -2.27876121   -1.34702106     2.000
     4   -2.26938639    0.99681851   -2.56079841     2.000
     5   -1.80366423   -1.58880682    2.63151126     2.000
     6    0.34367548    4.23110378    2.05699740     1.300
     7    3.00473931    2.35223796    2.77532423     1.300
     8    2.75683723    3.82099839   -0.20921518     1.300
     9    3.45243157   -1.41305084   -2.88804592     1.300
    10    3.73543923   -2.87905359    0.09525492     1.300
    11    1.45937518   -3.96682310   -2.08697873     1.300
    12   -3.28730179   -0.62873151   -3.32191072     1.300
    13   -3.66439770    2.33231211   -1.83328654     1.300
    14   -1.27331658    1.90820399   -4.12137709     1.300
    15   -2.79403837   -3.26231631    1.94116435     1.300
    16   -0.53629092   -2.18328636    4.14739518     1.300
    17   -3.20704186   -0.31169350    3.44240963     1.300
 number of segments per atom =         32
 number of   points per atom =         32
 atom (   nspa,  nppa )
 ----------------------
    1 (     12,     0 )       0
    2 (     16,     0 )       0
    3 (     17,     0 )       0
    4 (     16,     0 )       0
    5 (     14,     0 )       0
    6 (     15,     0 )       0
    7 (     16,     0 )       0
    8 (     16,     0 )       0
    9 (     15,     0 )       0
   10 (     16,     0 )       0
   11 (     13,     0 )       0
   12 (     14,     0 )       0
   13 (     15,     0 )       0
   14 (     13,     0 )       0
   15 (     14,     0 )       0
   16 (     16,     0 )       0
   17 (     15,     0 )       0
 number of -cosmo- surface points =      253
 molecular surface =    158.738 angstrom**2
 molecular volume  =     90.395 angstrom**3
 G(cav/disp)       =      1.654 kcal/mol
 ...... end of -cosmo- initialization ......


  Caching 1-el integrals 
   Time after variat. SCF:    521.5
   Time prior to 1st pass:    521.5


         Total DFT energy =     -449.288133211802
      One electron energy =    -1102.118141732669
           Coulomb energy =      454.635778922904
    Exchange-Corr. energy =      -47.239093002770
 Nuclear repulsion energy =      245.474425545005

             COSMO energy =       -0.041102944272

 Numeric. integr. density =       50.000000057638

     Total iterative time =    367.1s


                                   COSMO solvation results
                                   -----------------------

                 gas phase energy =      -449.286337866731
                 sol phase energy =      -449.288133211802
 (electrostatic) solvation energy =         0.001795345072 (    1.13 kcal/mol)


                         DFT ENERGY GRADIENTS

    atom               coordinates                        gradient
                 x          y          z           x          y          z
   1 Si      0.001003   0.000308   0.000211   -0.000056   0.000111  -0.000065
   2 C       1.684960   2.870861   1.276248   -0.000057  -0.000342  -0.000010
   3 C       2.387360  -2.278761  -1.347021   -0.000182   0.000131   0.000118
   4 C      -2.269386   0.996819  -2.560798    0.000223  -0.000113   0.000157
   5 C      -1.803664  -1.588807   2.631511    0.000084  -0.000061  -0.000076
   6 H       0.343675   4.231104   2.056997    0.000008   0.000085  -0.000046
   7 H       3.004739   2.352238   2.775324    0.000029   0.000111   0.000020
   8 H       2.756837   3.820998  -0.209215    0.000016   0.000121   0.000051
   9 H       3.452432  -1.413051  -2.888046    0.000038  -0.000093  -0.000056
  10 H       3.735439  -2.879054   0.095255    0.000084   0.000007  -0.000036
  11 H       1.459375  -3.966823  -2.086979    0.000092  -0.000061  -0.000023
  12 H      -3.287302  -0.628732  -3.321911   -0.000075   0.000026  -0.000017
  13 H      -3.664398   2.332312  -1.833287   -0.000005   0.000053  -0.000046
  14 H      -1.273317   1.908204  -4.121377   -0.000101   0.000016  -0.000067
  15 H      -2.794038  -3.262316   1.941164   -0.000033   0.000005   0.000024
  16 H      -0.536291  -2.183286   4.147395   -0.000030   0.000033   0.000045
  17 H      -3.207042  -0.311694   3.442410   -0.000034  -0.000030   0.000024
 
  no constraints, skipping   0.000000000000000E+000

  Step       Energy      Delta E   Gmax     Grms     Xrms     Xmax   Walltime
  ---- ---------------- -------- -------- -------- -------- -------- --------
@    1    -449.28813321 -3.9D-06  0.00008  0.00003  0.00114  0.00315    976.4
                                                                    

  no constraints, skipping   0.000000000000000E+000
  no constraints, skipping   0.000000000000000E+000
  no constraints, skipping   0.000000000000000E+000
  no constraints, skipping   0.000000000000000E+000
  no constraints, skipping   0.000000000000000E+000
  no constraints, skipping   0.000000000000000E+000
  no constraints, skipping   0.000000000000000E+000
  no constraints, skipping   0.000000000000000E+000

          --------
          Step   2
          --------
 
                                 NWChem DFT Module
                                 -----------------
 
 
                                        TMS
 
 
 
 
 solvent parameters
 solvname_short: h2o     
 solvname_long:  water                              
 dielec:       78.4000
 dielecinf:     1.7769

          ---------------
          -cosmo- solvent
          ---------------
 Cosmo: York-Karplus, doi: 10.1021/jp992097l
 dielectric constant -eps-     =  78.40
 screen = (eps-1)/(eps    )    =   0.98724
 surface charge correction     = lagrangian
 -lineq- algorithm             =   0
 -bem- low  level              =   2
 -bem- from -octahedral-
 gaussian surface charge width =   0.98000
 degree of switching           =   1.00000
 switching function tolerance  =   0.00010
 atomic radii = 
 --------------
    1 14.000  2.457
    2  6.000  2.000
    3  6.000  2.000
    4  6.000  2.000
    5  6.000  2.000
    6  1.000  1.300
    7  1.000  1.300
    8  1.000  1.300
    9  1.000  1.300
   10  1.000  1.300
   11  1.000  1.300
   12  1.000  1.300
   13  1.000  1.300
   14  1.000  1.300
   15  1.000  1.300
   16  1.000  1.300
   17  1.000  1.300

 solvent accessible surface
 --------------------------

 ---------- ATOMIC COORDINATES (A.U.) ------------ VDWR(ANG.) --
     1    0.00084495    0.00046341    0.00048600     2.457
     2    1.68485774    2.87111108    1.27635640     2.000
     3    2.38713395   -2.27811822   -1.34723531     2.000
     4   -2.26940441    0.99647332   -2.56114443     2.000
     5   -1.80353440   -1.58835151    2.63184618     2.000
     6    0.34353322    4.23071085    2.05790760     1.300
     7    3.00429404    2.34975808    2.77476640     1.300
     8    2.75623489    3.81901694   -0.21076450     1.300
     9    3.45135580   -1.41008697   -2.88747296     1.300
    10    3.73421666   -2.87870386    0.09570897     1.300
    11    1.45704004   -3.96493187   -2.08718659     1.300
    12   -3.28537136   -0.63031041   -3.32206553     1.300
    13   -3.66505534    2.33118927   -1.83366431     1.300
    14   -1.27061711    1.90755266   -4.12016559     1.300
    15   -2.79348460   -3.26196649    1.94112072     1.300
    16   -0.53524286   -2.18293808    4.14697171     1.300
    17   -3.20641821   -0.31054801    3.44241839     1.300
 number of segments per atom =         32
 number of   points per atom =         32
 atom (   nspa,  nppa )
 ----------------------
    1 (     12,     0 )       0
    2 (     16,     0 )       0
    3 (     17,     0 )       0
    4 (     16,     0 )       0
    5 (     14,     0 )       0
    6 (     15,     0 )       0
    7 (     16,     0 )       0
    8 (     16,     0 )       0
    9 (     15,     0 )       0
   10 (     16,     0 )       0
   11 (     13,     0 )       0
   12 (     14,     0 )       0
   13 (     15,     0 )       0
   14 (     13,     0 )       0
   15 (     14,     0 )       0
   16 (     16,     0 )       0
   17 (     15,     0 )       0
 number of -cosmo- surface points =      253
 molecular surface =    158.756 angstrom**2
 molecular volume  =     90.409 angstrom**3
 G(cav/disp)       =      1.654 kcal/mol
 ...... end of -cosmo- initialization ......


  Caching 1-el integrals 
   Time after variat. SCF:    976.7
   Time prior to 1st pass:    976.7


         Total DFT energy =     -449.288134645088
      One electron energy =    -1102.152011896880
           Coulomb energy =      454.653311276591
    Exchange-Corr. energy =      -47.239253522511
 Nuclear repulsion energy =      245.492410875235

             COSMO energy =       -0.042591377524

 Numeric. integr. density =       50.000000057191

     Total iterative time =    361.8s


                                   COSMO solvation results
                                   -----------------------

                 gas phase energy =      -449.286328490558
                 sol phase energy =      -449.288134645088
 (electrostatic) solvation energy =         0.001806154530 (    1.13 kcal/mol)


                         DFT ENERGY GRADIENTS

    atom               coordinates                        gradient
                 x          y          z           x          y          z
   1 Si      0.000845   0.000463   0.000486    0.000017   0.000048  -0.000068
   2 C       1.684858   2.871111   1.276356    0.000015  -0.000113   0.000033
   3 C       2.387134  -2.278118  -1.347235   -0.000044   0.000013   0.000031
   4 C      -2.269404   0.996473  -2.561144    0.000068  -0.000035   0.000029
   5 C      -1.803534  -1.588352   2.631846    0.000024  -0.000032  -0.000039
   6 H       0.343533   4.230711   2.057908   -0.000041   0.000027  -0.000025
   7 H       3.004294   2.349758   2.774766   -0.000014   0.000014   0.000027
   8 H       2.756235   3.819017  -0.210764   -0.000015   0.000021  -0.000025
   9 H       3.451356  -1.410087  -2.887473   -0.000005   0.000010  -0.000036
  10 H       3.734217  -2.878704   0.095709    0.000033   0.000041   0.000009
  11 H       1.457040  -3.964932  -2.087187    0.000002  -0.000026   0.000034
  12 H      -3.285371  -0.630310  -3.322066   -0.000045  -0.000009   0.000037
  13 H      -3.665055   2.331189  -1.833664    0.000002   0.000029   0.000013
  14 H      -1.270617   1.907553  -4.120166    0.000008  -0.000008  -0.000027
  15 H      -2.793485  -3.261966   1.941121    0.000000  -0.000010  -0.000008
  16 H      -0.535243  -2.182938   4.146972    0.000015   0.000020   0.000023
  17 H      -3.206418  -0.310548   3.442418   -0.000019   0.000011  -0.000008
 
  no constraints, skipping   0.000000000000000E+000

  Step       Energy      Delta E   Gmax     Grms     Xrms     Xmax   Walltime
  ---- ---------------- -------- -------- -------- -------- -------- --------
@    2    -449.28813465 -1.4D-06  0.00006  0.00002  0.00106  0.00296   1426.8
                                                                    

  no constraints, skipping   0.000000000000000E+000
  no constraints, skipping   0.000000000000000E+000
  no constraints, skipping   0.000000000000000E+000

          --------
          Step   3
          --------
 
                                 NWChem DFT Module
                                 -----------------
 
 
                                        TMS
 
 
 
 
 solvent parameters
 solvname_short: h2o     
 solvname_long:  water                              
 dielec:       78.4000
 dielecinf:     1.7769

          ---------------
          -cosmo- solvent
          ---------------
 Cosmo: York-Karplus, doi: 10.1021/jp992097l
 dielectric constant -eps-     =  78.40
 screen = (eps-1)/(eps    )    =   0.98724
 surface charge correction     = lagrangian
 -lineq- algorithm             =   0
 -bem- low  level              =   2
 -bem- from -octahedral-
 gaussian surface charge width =   0.98000
 degree of switching           =   1.00000
 switching function tolerance  =   0.00010
 atomic radii = 
 --------------
    1 14.000  2.457
    2  6.000  2.000
    3  6.000  2.000
    4  6.000  2.000
    5  6.000  2.000
    6  1.000  1.300
    7  1.000  1.300
    8  1.000  1.300
    9  1.000  1.300
   10  1.000  1.300
   11  1.000  1.300
   12  1.000  1.300
   13  1.000  1.300
   14  1.000  1.300
   15  1.000  1.300
   16  1.000  1.300
   17  1.000  1.300

 solvent accessible surface
 --------------------------

 ---------- ATOMIC COORDINATES (A.U.) ------------ VDWR(ANG.) --
     1    0.00066053    0.00054385    0.00072177     2.457
     2    1.68488131    2.87135182    1.27644459     2.000
     3    2.38702930   -2.27788481   -1.34737361     2.000
     4   -2.26949522    0.99627785   -2.56138544     2.000
     5   -1.80363175   -1.58821873    2.63222024     2.000
     6    0.34396905    4.23093963    2.05849388     1.300
     7    3.00445027    2.34925807    2.77444289     1.300
     8    2.75622015    3.81874059   -0.21095899     1.300
     9    3.45129176   -1.40929585   -2.88717224     1.300
    10    3.73376287   -2.87907392    0.09558776     1.300
    11    1.45650648   -3.96420708   -2.08780375     1.300
    12   -3.28447479   -0.63092010   -3.32266720     1.300
    13   -3.66571628    2.33052776   -1.83435502     1.300
    14   -1.27005266    1.90744444   -4.11987252     1.300
    15   -2.79356574   -3.26183799    1.94155487     1.300
    16   -0.53513441   -2.18296520    4.14707002     1.300
    17   -3.20631788   -0.31036015    3.44293590     1.300
 number of segments per atom =         32
 number of   points per atom =         32
 atom (   nspa,  nppa )
 ----------------------
    1 (     12,     0 )       0
    2 (     16,     0 )       0
    3 (     17,     0 )       0
    4 (     16,     0 )       0
    5 (     14,     0 )       0
    6 (     15,     0 )       0
    7 (     16,     0 )       0
    8 (     16,     0 )       0
    9 (     15,     0 )       0
   10 (     16,     0 )       0
   11 (     13,     0 )       0
   12 (     14,     0 )       0
   13 (     15,     0 )       0
   14 (     13,     0 )       0
   15 (     14,     0 )       0
   16 (     16,     0 )       0
   17 (     15,     0 )       0
 number of -cosmo- surface points =      253
 molecular surface =    158.768 angstrom**2
 molecular volume  =     90.418 angstrom**3
 G(cav/disp)       =      1.654 kcal/mol
 ...... end of -cosmo- initialization ......


  Caching 1-el integrals 
   Time after variat. SCF:   1427.1
   Time prior to 1st pass:   1427.1


         Total DFT energy =     -449.288134887582
      One electron energy =    -1102.144553705367
           Coulomb energy =      454.649569138097
    Exchange-Corr. energy =      -47.239281391423
 Nuclear repulsion energy =      245.488900294526

             COSMO energy =       -0.042769223415

 Numeric. integr. density =       50.000000058337

     Total iterative time =    366.5s


                                   COSMO solvation results
                                   -----------------------

                 gas phase energy =      -449.286327385060
                 sol phase energy =      -449.288134887582
 (electrostatic) solvation energy =         0.001807502522 (    1.13 kcal/mol)


                         DFT ENERGY GRADIENTS

    atom               coordinates                        gradient
                 x          y          z           x          y          z
   1 Si      0.000661   0.000544   0.000722    0.000028   0.000018  -0.000050
   2 C       1.684881   2.871352   1.276445    0.000024  -0.000030   0.000046
   3 C       2.387029  -2.277885  -1.347374    0.000002  -0.000009  -0.000007
   4 C      -2.269495   0.996278  -2.561385    0.000017   0.000002  -0.000011
   5 C      -1.803632  -1.588219   2.632220    0.000000  -0.000027  -0.000017
   6 H       0.343969   4.230940   2.058494   -0.000031   0.000005  -0.000023
   7 H       3.004450   2.349258   2.774443   -0.000026   0.000001   0.000016
   8 H       2.756220   3.818741  -0.210959   -0.000017  -0.000004  -0.000024
   9 H       3.451292  -1.409296  -2.887172   -0.000020   0.000013  -0.000020
  10 H       3.733763  -2.879074   0.095588    0.000020   0.000045   0.000009
  11 H       1.456506  -3.964207  -2.087804   -0.000006  -0.000014   0.000046
  12 H      -3.284475  -0.630920  -3.322667   -0.000033  -0.000008   0.000041
  13 H      -3.665716   2.330528  -1.834355    0.000013   0.000015   0.000012
  14 H      -1.270053   1.907444  -4.119873    0.000015  -0.000024  -0.000010
  15 H      -2.793566  -3.261838   1.941555    0.000012  -0.000008  -0.000005
  16 H      -0.535134  -2.182965   4.147070    0.000011   0.000017   0.000010
  17 H      -3.206318  -0.310360   3.442936   -0.000010   0.000008  -0.000014
 
  no constraints, skipping   0.000000000000000E+000

  Step       Energy      Delta E   Gmax     Grms     Xrms     Xmax   Walltime
  ---- ---------------- -------- -------- -------- -------- -------- --------
@    3    -449.28813489 -2.4D-07  0.00004  0.00001  0.00039  0.00090   1881.7
                                                                    

  no constraints, skipping   0.000000000000000E+000
  no constraints, skipping   0.000000000000000E+000
  no constraints, skipping   0.000000000000000E+000
  no constraints, skipping   0.000000000000000E+000

          --------
          Step   4
          --------
 
                                 NWChem DFT Module
                                 -----------------
 
 
                                        TMS
 
 
 
 
 solvent parameters
 solvname_short: h2o     
 solvname_long:  water                              
 dielec:       78.4000
 dielecinf:     1.7769

          ---------------
          -cosmo- solvent
          ---------------
 Cosmo: York-Karplus, doi: 10.1021/jp992097l
 dielectric constant -eps-     =  78.40
 screen = (eps-1)/(eps    )    =   0.98724
 surface charge correction     = lagrangian
 -lineq- algorithm             =   0
 -bem- low  level              =   2
 -bem- from -octahedral-
 gaussian surface charge width =   0.98000
 degree of switching           =   1.00000
 switching function tolerance  =   0.00010
 atomic radii = 
 --------------
    1 14.000  2.457
    2  6.000  2.000
    3  6.000  2.000
    4  6.000  2.000
    5  6.000  2.000
    6  1.000  1.300
    7  1.000  1.300
    8  1.000  1.300
    9  1.000  1.300
   10  1.000  1.300
   11  1.000  1.300
   12  1.000  1.300
   13  1.000  1.300
   14  1.000  1.300
   15  1.000  1.300
   16  1.000  1.300
   17  1.000  1.300

 solvent accessible surface
 --------------------------

 ---------- ATOMIC COORDINATES (A.U.) ------------ VDWR(ANG.) --
     1    0.00000253    0.00080366    0.00151071     2.457
     2    1.68499070    2.87206527    1.27664478     2.000
     3    2.38662506   -2.27724082   -1.34769945     2.000
     4   -2.26977470    0.99561825   -2.56207552     2.000
     5   -1.80399268   -1.58785744    2.63345485     2.000
     6    0.34556866    4.23191463    2.06032998     1.300
     7    3.00534810    2.34830245    2.77334681     1.300
     8    2.75628990    3.81847368   -0.21128354     1.300
     9    3.45163815   -1.40731401   -2.88604324     1.300
    10    3.73228707   -2.88081977    0.09517317     1.300
    11    1.45528987   -3.96212424   -2.09025380     1.300
    12   -3.28161903   -0.63274690   -3.32494564     1.300
    13   -3.66812517    2.32827608   -1.83664173     1.300
    14   -1.26894372    1.90753649   -4.11913529     1.300
    15   -2.79414691   -3.26140196    1.94305071     1.300
    16   -0.53496684   -2.18321207    4.14755677     1.300
    17   -3.20608802   -0.30995313    3.44489356     1.300
 number of segments per atom =         32
 number of   points per atom =         32
 atom (   nspa,  nppa )
 ----------------------
    1 (     12,     0 )       0
    2 (     16,     0 )       0
    3 (     17,     0 )       0
    4 (     16,     0 )       0
    5 (     14,     0 )       0
    6 (     15,     0 )       0
    7 (     16,     0 )       0
    8 (     16,     0 )       0
    9 (     15,     0 )       0
   10 (     16,     0 )       0
   11 (     13,     0 )       0
   12 (     14,     0 )       0
   13 (     15,     0 )       0
   14 (     13,     0 )       0
   15 (     14,     0 )       0
   16 (     16,     0 )       0
   17 (     15,     0 )       0
 number of -cosmo- surface points =      253
 molecular surface =    158.810 angstrom**2
 molecular volume  =     90.445 angstrom**3
 G(cav/disp)       =      1.654 kcal/mol
 ...... end of -cosmo- initialization ......


  Caching 1-el integrals 
   Time after variat. SCF:   1881.9
   Time prior to 1st pass:   1882.0


         Total DFT energy =     -449.288135365215
      One electron energy =    -1102.110591057554
           Coulomb energy =      454.632315726268
    Exchange-Corr. energy =      -47.239211573144
 Nuclear repulsion energy =      245.472225135123

             COSMO energy =       -0.042873595908

 Numeric. integr. density =       50.000000065935

     Total iterative time =    363.3s


                                   COSMO solvation results
                                   -----------------------

                 gas phase energy =      -449.286326541998
                 sol phase energy =      -449.288135365215
 (electrostatic) solvation energy =         0.001808823217 (    1.14 kcal/mol)


                         DFT ENERGY GRADIENTS

    atom               coordinates                        gradient
                 x          y          z           x          y          z
   1 Si      0.000003   0.000804   0.001511    0.000037  -0.000063   0.000015
   2 C       1.684991   2.872065   1.276645    0.000016   0.000146   0.000057
   3 C       2.386625  -2.277241  -1.347699    0.000093  -0.000031  -0.000083
   4 C      -2.269775   0.995618  -2.562076   -0.000088   0.000078  -0.000080
   5 C      -1.803993  -1.587857   2.633455   -0.000051  -0.000011   0.000025
   6 H       0.345569   4.231915   2.060330    0.000001  -0.000028  -0.000012
   7 H       3.005348   2.348302   2.773347   -0.000034  -0.000016  -0.000007
   8 H       2.756290   3.818474  -0.211284   -0.000005  -0.000044  -0.000007
   9 H       3.451638  -1.407314  -2.886043   -0.000044   0.000003   0.000008
  10 H       3.732287  -2.880820   0.095173    0.000000   0.000040   0.000002
  11 H       1.455290  -3.962124  -2.090254   -0.000011   0.000006   0.000060
  12 H      -3.281619  -0.632747  -3.324946   -0.000004  -0.000006   0.000034
  13 H      -3.668125   2.328276  -1.836642    0.000032  -0.000007  -0.000003
  14 H      -1.268944   1.907536  -4.119135    0.000020  -0.000057   0.000012
  15 H      -2.794147  -3.261402   1.943051    0.000032  -0.000008   0.000010
  16 H      -0.534967  -2.183212   4.147557   -0.000001   0.000005  -0.000012
  17 H      -3.206088  -0.309953   3.444894    0.000007  -0.000005  -0.000018
 
  no constraints, skipping   0.000000000000000E+000

  Step       Energy      Delta E   Gmax     Grms     Xrms     Xmax   Walltime
  ---- ---------------- -------- -------- -------- -------- -------- --------
@    4    -449.28813537 -4.8D-07  0.00005  0.00001  0.00125  0.00285   2333.8
                                                                    

  no constraints, skipping   0.000000000000000E+000
  no constraints, skipping   0.000000000000000E+000
  no constraints, skipping   0.000000000000000E+000
  no constraints, skipping   0.000000000000000E+000

          --------
          Step   5
          --------
 
                                 NWChem DFT Module
                                 -----------------
 
 
                                        TMS
 
 
 
 
 solvent parameters
 solvname_short: h2o     
 solvname_long:  water                              
 dielec:       78.4000
 dielecinf:     1.7769

          ---------------
          -cosmo- solvent
          ---------------
 Cosmo: York-Karplus, doi: 10.1021/jp992097l
 dielectric constant -eps-     =  78.40
 screen = (eps-1)/(eps    )    =   0.98724
 surface charge correction     = lagrangian
 -lineq- algorithm             =   0
 -bem- low  level              =   2
 -bem- from -octahedral-
 gaussian surface charge width =   0.98000
 degree of switching           =   1.00000
 switching function tolerance  =   0.00010
 atomic radii = 
 --------------
    1 14.000  2.457
    2  6.000  2.000
    3  6.000  2.000
    4  6.000  2.000
    5  6.000  2.000
    6  1.000  1.300
    7  1.000  1.300
    8  1.000  1.300
    9  1.000  1.300
   10  1.000  1.300
   11  1.000  1.300
   12  1.000  1.300
   13  1.000  1.300
   14  1.000  1.300
   15  1.000  1.300
   16  1.000  1.300
   17  1.000  1.300

 solvent accessible surface
 --------------------------

 ---------- ATOMIC COORDINATES (A.U.) ------------ VDWR(ANG.) --
     1   -0.00049845    0.00100333    0.00206158     2.457
     2    1.68508744    2.87243488    1.27662660     2.000
     3    2.38624592   -2.27684206   -1.34775080     2.000
     4   -2.26992567    0.99509958   -2.56243929     2.000
     5   -1.80421499   -1.58758620    2.63428756     2.000
     6    0.34674978    4.23258306    2.06152388     1.300
     7    3.00629287    2.34793705    2.77236988     1.300
     8    2.75622593    3.81858712   -0.21156521     1.300
     9    3.45238692   -1.40607139   -2.88481544     1.300
    10    3.73095018   -2.88255977    0.09511254     1.300
    11    1.45463797   -3.96064851   -2.09244681     1.300
    12   -3.27939245   -0.63404361   -3.32682564     1.300
    13   -3.67011807    2.32634071   -1.83807441     1.300
    14   -1.26858246    1.90813276   -4.11852823     1.300
    15   -2.79478872   -3.26093919    1.94403648     1.300
    16   -0.53484067   -2.18347225    4.14788433     1.300
    17   -3.20583253   -0.30963532    3.44642611     1.300
 number of segments per atom =         32
 number of   points per atom =         32
 atom (   nspa,  nppa )
 ----------------------
    1 (     12,     0 )       0
    2 (     16,     0 )       0
    3 (     17,     0 )       0
    4 (     16,     0 )       0
    5 (     14,     0 )       0
    6 (     15,     0 )       0
    7 (     16,     0 )       0
    8 (     16,     0 )       0
    9 (     15,     0 )       0
   10 (     16,     0 )       0
   11 (     13,     0 )       0
   12 (     14,     0 )       0
   13 (     15,     0 )       0
   14 (     14,     0 )       0
   15 (     14,     0 )       0
   16 (     16,     0 )       0
   17 (     15,     0 )       0
 number of -cosmo- surface points =      254
 molecular surface =    158.841 angstrom**2
 molecular volume  =     90.463 angstrom**3
 G(cav/disp)       =      1.654 kcal/mol
 ...... end of -cosmo- initialization ......


  Caching 1-el integrals 
   Time after variat. SCF:   2334.1
   Time prior to 1st pass:   2334.1


         Total DFT energy =     -449.288135656679
      One electron energy =    -1102.091413544872
           Coulomb energy =      454.622511282507
    Exchange-Corr. energy =      -47.239113747379
 Nuclear repulsion energy =      245.462615823631

             COSMO energy =       -0.042735470566

 Numeric. integr. density =       50.000000072607

     Total iterative time =    367.0s


                                   COSMO solvation results
                                   -----------------------

                 gas phase energy =      -449.286327220904
                 sol phase energy =      -449.288135656679
 (electrostatic) solvation energy =         0.001808435775 (    1.13 kcal/mol)


                         DFT ENERGY GRADIENTS

    atom               coordinates                        gradient
                 x          y          z           x          y          z
   1 Si     -0.000498   0.001003   0.002062    0.000025  -0.000096   0.000060
   2 C       1.685087   2.872435   1.276627   -0.000009   0.000197   0.000043
   3 C       2.386246  -2.276842  -1.347751    0.000113  -0.000018  -0.000098
   4 C      -2.269926   0.995100  -2.562439   -0.000120   0.000098  -0.000084
   5 C      -1.804215  -1.587586   2.634288   -0.000065  -0.000002   0.000031
   6 H       0.346750   4.232583   2.061524    0.000016  -0.000030  -0.000001
   7 H       3.006293   2.347937   2.772370   -0.000024  -0.000018  -0.000016
   8 H       2.756226   3.818587  -0.211565    0.000014  -0.000050   0.000006
   9 H       3.452387  -1.406071  -2.884815   -0.000045  -0.000008   0.000009
  10 H       3.730950  -2.882560   0.095113   -0.000000   0.000028  -0.000004
  11 H       1.454638  -3.960649  -2.092447   -0.000006   0.000004   0.000055
  12 H      -3.279392  -0.634044  -3.326826    0.000009  -0.000007   0.000019
  13 H      -3.670118   2.326341  -1.838074    0.000033  -0.000008  -0.000016
  14 H      -1.268582   1.908133  -4.118528    0.000017  -0.000067   0.000008
  15 H      -2.794789  -3.260939   1.944036    0.000036  -0.000011   0.000017
  16 H      -0.534841  -2.183472   4.147884   -0.000005  -0.000000  -0.000015
  17 H      -3.205833  -0.309635   3.446426    0.000010  -0.000011  -0.000014
 
  no constraints, skipping   0.000000000000000E+000

  Step       Energy      Delta E   Gmax     Grms     Xrms     Xmax   Walltime
  ---- ---------------- -------- -------- -------- -------- -------- --------
@    5    -449.28813566 -2.9D-07  0.00010  0.00002  0.00098  0.00223   2789.1
                                                                    

  no constraints, skipping   0.000000000000000E+000
  no constraints, skipping   0.000000000000000E+000
  no constraints, skipping   0.000000000000000E+000
  no constraints, skipping   0.000000000000000E+000

          --------
          Step   6
          --------
 
                                 NWChem DFT Module
                                 -----------------
 
 
                                        TMS
 
 
 
 
 solvent parameters
 solvname_short: h2o     
 solvname_long:  water                              
 dielec:       78.4000
 dielecinf:     1.7769

          ---------------
          -cosmo- solvent
          ---------------
 Cosmo: York-Karplus, doi: 10.1021/jp992097l
 dielectric constant -eps-     =  78.40
 screen = (eps-1)/(eps    )    =   0.98724
 surface charge correction     = lagrangian
 -lineq- algorithm             =   0
 -bem- low  level              =   2
 -bem- from -octahedral-
 gaussian surface charge width =   0.98000
 degree of switching           =   1.00000
 switching function tolerance  =   0.00010
 atomic radii = 
 --------------
    1 14.000  2.457
    2  6.000  2.000
    3  6.000  2.000
    4  6.000  2.000
    5  6.000  2.000
    6  1.000  1.300
    7  1.000  1.300
    8  1.000  1.300
    9  1.000  1.300
   10  1.000  1.300
   11  1.000  1.300
   12  1.000  1.300
   13  1.000  1.300
   14  1.000  1.300
   15  1.000  1.300
   16  1.000  1.300
   17  1.000  1.300

 solvent accessible surface
 --------------------------

 ---------- ATOMIC COORDINATES (A.U.) ------------ VDWR(ANG.) --
     1   -0.00127326    0.00134464    0.00284964     2.457
     2    1.68526526    2.87280042    1.27628719     2.000
     3    2.38551240   -2.27632843   -1.34753025     2.000
     4   -2.27006242    0.99420757   -2.56280749     2.000
     5   -1.80443242   -1.58707402    2.63547350     2.000
     6    0.34853106    4.23338132    2.06317146     1.300
     7    3.00818088    2.34766718    2.77040451     1.300
     8    2.75568847    3.81902248   -0.21241453     1.300
     9    3.45438787   -1.40412118   -2.88194340     1.300
    10    3.72810820   -2.88612377    0.09561407     1.300
    11    1.45366871   -3.95811141   -2.09664780     1.300
    12   -3.27535950   -0.63616398   -3.33016680     1.300
    13   -3.67369654    2.32253657   -1.83976195     1.300
    14   -1.26845908    1.91004436   -4.11716023     1.300
    15   -2.79609526   -3.25985278    1.94535786     1.300
    16   -0.53448813   -2.18399948    4.14821262     1.300
    17   -3.20509327   -0.30890931    3.44894475     1.300
 number of segments per atom =         32
 number of   points per atom =         32
 atom (   nspa,  nppa )
 ----------------------
    1 (     12,     0 )       0
    2 (     16,     0 )       0
    3 (     17,     0 )       0
    4 (     16,     0 )       0
    5 (     14,     0 )       0
    6 (     15,     0 )       0
    7 (     16,     0 )       0
    8 (     16,     0 )       0
    9 (     15,     0 )       0
   10 (     16,     0 )       0
   11 (     13,     0 )       0
   12 (     14,     0 )       0
   13 (     15,     0 )       0
   14 (     14,     0 )       0
   15 (     14,     0 )       0
   16 (     16,     0 )       0
   17 (     15,     0 )       0
 number of -cosmo- surface points =      254
 molecular surface =    158.892 angstrom**2
 molecular volume  =     90.491 angstrom**3
 G(cav/disp)       =      1.654 kcal/mol
 ...... end of -cosmo- initialization ......


  Caching 1-el integrals 
   Time after variat. SCF:   2789.4
   Time prior to 1st pass:   2789.4


         Total DFT energy =     -449.288136172928
      One electron energy =    -1102.078706689046
           Coulomb energy =      454.615950275521
    Exchange-Corr. energy =      -47.238998891927
 Nuclear repulsion energy =      245.456032272543

             COSMO energy =       -0.042413140020

 Numeric. integr. density =       50.000000083701

     Total iterative time =    365.7s


                                   COSMO solvation results
                                   -----------------------

                 gas phase energy =      -449.286328975256
                 sol phase energy =      -449.288136172928
 (electrostatic) solvation energy =         0.001807197672 (    1.13 kcal/mol)


                         DFT ENERGY GRADIENTS

    atom               coordinates                        gradient
                 x          y          z           x          y          z
   1 Si     -0.001273   0.001345   0.002850   -0.000010  -0.000114   0.000117
   2 C       1.685265   2.872800   1.276287   -0.000061   0.000195   0.000003
   3 C       2.385512  -2.276328  -1.347530    0.000099   0.000024  -0.000078
   4 C      -2.270062   0.994208  -2.562807   -0.000117   0.000092  -0.000046
   5 C      -1.804432  -1.587074   2.635473   -0.000058   0.000006   0.000015
   6 H       0.348531   4.233381   2.063171    0.000029  -0.000015   0.000013
   7 H       3.008181   2.347667   2.770405    0.000003  -0.000012  -0.000020
   8 H       2.755688   3.819022  -0.212415    0.000045  -0.000042   0.000023
   9 H       3.454388  -1.404121  -2.881943   -0.000034  -0.000024  -0.000006
  10 H       3.728108  -2.886124   0.095614    0.000009   0.000005  -0.000012
  11 H       1.453669  -3.958111  -2.096648    0.000007  -0.000007   0.000036
  12 H      -3.275359  -0.636164  -3.330167    0.000022  -0.000011  -0.000009
  13 H      -3.673697   2.322537  -1.839762    0.000023   0.000002  -0.000036
  14 H      -1.268459   1.910044  -4.117160    0.000009  -0.000066  -0.000012
  15 H      -2.796095  -3.259853   1.945358    0.000033  -0.000015   0.000021
  16 H      -0.534488  -2.183999   4.148213   -0.000005  -0.000005  -0.000008
  17 H      -3.205093  -0.308909   3.448945    0.000007  -0.000015  -0.000002
 
  no constraints, skipping   0.000000000000000E+000

  Step       Energy      Delta E   Gmax     Grms     Xrms     Xmax   Walltime
  ---- ---------------- -------- -------- -------- -------- -------- --------
@    6    -449.28813617 -5.2D-07  0.00012  0.00002  0.00179  0.00420   3243.3
                                                                    

  no constraints, skipping   0.000000000000000E+000
  no constraints, skipping   0.000000000000000E+000
  no constraints, skipping   0.000000000000000E+000
  no constraints, skipping   0.000000000000000E+000

          --------
          Step   7
          --------
 
                                 NWChem DFT Module
                                 -----------------
 
 
                                        TMS
 
 
 
 
 solvent parameters
 solvname_short: h2o     
 solvname_long:  water                              
 dielec:       78.4000
 dielecinf:     1.7769

          ---------------
          -cosmo- solvent
          ---------------
 Cosmo: York-Karplus, doi: 10.1021/jp992097l
 dielectric constant -eps-     =  78.40
 screen = (eps-1)/(eps    )    =   0.98724
 surface charge correction     = lagrangian
 -lineq- algorithm             =   0
 -bem- low  level              =   2
 -bem- from -octahedral-
 gaussian surface charge width =   0.98000
 degree of switching           =   1.00000
 switching function tolerance  =   0.00010
 atomic radii = 
 --------------
    1 14.000  2.457
    2  6.000  2.000
    3  6.000  2.000
    4  6.000  2.000
    5  6.000  2.000
    6  1.000  1.300
    7  1.000  1.300
    8  1.000  1.300
    9  1.000  1.300
   10  1.000  1.300
   11  1.000  1.300
   12  1.000  1.300
   13  1.000  1.300
   14  1.000  1.300
   15  1.000  1.300
   16  1.000  1.300
   17  1.000  1.300

 solvent accessible surface
 --------------------------

 ---------- ATOMIC COORDINATES (A.U.) ------------ VDWR(ANG.) --
     1   -0.00188208    0.00167037    0.00339014     2.457
     2    1.68549876    2.87289011    1.27552503     2.000
     3    2.38476176   -2.27607456   -1.34694909     2.000
     4   -2.27010478    0.99330524   -2.56289909     2.000
     5   -1.80444309   -1.58644242    2.63636312     2.000
     6    0.34999002    4.23363301    2.06435809     1.300
     7    3.01042013    2.34773085    2.76794806     1.300
     8    2.75446293    3.81966653   -0.21394816     1.300
     9    3.45748871   -1.40222901   -2.87785694     1.300
    10    3.72436389   -2.89055493    0.09703822     1.300
    11    1.45276821   -3.95539301   -2.10155730     1.300
    12   -3.27090520   -0.63823265   -3.33376691     1.300
    13   -3.67759708    2.31784718   -1.84029150     1.300
    14   -1.26891838    1.91324910   -4.11519173     1.300
    15   -2.79770428   -3.25830317    1.94625622     1.300
    16   -0.53395424   -2.18465312    4.14817390     1.300
    17   -3.20386229   -0.30778934    3.45129108     1.300
 number of segments per atom =         32
 number of   points per atom =         32
 atom (   nspa,  nppa )
 ----------------------
    1 (     12,     0 )       0
    2 (     16,     0 )       0
    3 (     17,     0 )       0
    4 (     16,     0 )       0
    5 (     14,     0 )       0
    6 (     15,     0 )       0
    7 (     16,     0 )       0
    8 (     16,     0 )       0
    9 (     15,     0 )       0
   10 (     16,     0 )       0
   11 (     13,     0 )       0
   12 (     14,     0 )       0
   13 (     15,     0 )       0
   14 (     15,     0 )       0
   15 (     14,     0 )       0
   16 (     16,     0 )       0
   17 (     15,     0 )       0
 number of -cosmo- surface points =      255
 molecular surface =    158.939 angstrom**2
 molecular volume  =     90.517 angstrom**3
 G(cav/disp)       =      1.655 kcal/mol
 ...... end of -cosmo- initialization ......


  Caching 1-el integrals 
   Time after variat. SCF:   3243.6
   Time prior to 1st pass:   3243.6


         Total DFT energy =     -449.288136797130
      One electron energy =    -1102.090527609800
           Coulomb energy =      454.621899142762
    Exchange-Corr. energy =      -47.239000206189
 Nuclear repulsion energy =      245.461616892355

             COSMO energy =       -0.042125016259

 Numeric. integr. density =       50.000000084720

     Total iterative time =    359.9s


                                   COSMO solvation results
                                   -----------------------

                 gas phase energy =      -449.286330651814
                 sol phase energy =      -449.288136797130
 (electrostatic) solvation energy =         0.001806145316 (    1.13 kcal/mol)


                         DFT ENERGY GRADIENTS

    atom               coordinates                        gradient
                 x          y          z           x          y          z
   1 Si     -0.001882   0.001670   0.003390   -0.000051  -0.000082   0.000144
   2 C       1.685499   2.872890   1.275525   -0.000105   0.000114  -0.000044
   3 C       2.384762  -2.276075  -1.346949    0.000052   0.000070  -0.000023
   4 C      -2.270105   0.993305  -2.562899   -0.000069   0.000054   0.000021
   5 C      -1.804443  -1.586442   2.636363   -0.000026   0.000006  -0.000018
   6 H       0.349990   4.233633   2.064358    0.000030   0.000007   0.000021
   7 H       3.010420   2.347731   2.767948    0.000028  -0.000002  -0.000018
   8 H       2.754463   3.819667  -0.213948    0.000065  -0.000022   0.000031
   9 H       3.457489  -1.402229  -2.877857   -0.000018  -0.000031  -0.000025
  10 H       3.724364  -2.890555   0.097038    0.000021  -0.000013  -0.000017
  11 H       1.452768  -3.955393  -2.101557    0.000019  -0.000019   0.000010
  12 H      -3.270905  -0.638233  -3.333767    0.000026  -0.000014  -0.000031
  13 H      -3.677597   2.317847  -1.840292    0.000007   0.000015  -0.000050
  14 H      -1.268918   1.913249  -4.115192    0.000001  -0.000054  -0.000032
  15 H      -2.797704  -3.258303   1.946256    0.000021  -0.000015   0.000017
  16 H      -0.533954  -2.184653   4.148174   -0.000001  -0.000002   0.000003
  17 H      -3.203862  -0.307789   3.451291    0.000000  -0.000013   0.000009
 
  no constraints, skipping   0.000000000000000E+000

  Step       Energy      Delta E   Gmax     Grms     Xrms     Xmax   Walltime
  ---- ---------------- -------- -------- -------- -------- -------- --------
@    7    -449.28813680 -6.2D-07  0.00009  0.00002  0.00210  0.00491   3690.0
                                                                    

  no constraints, skipping   0.000000000000000E+000
  no constraints, skipping   0.000000000000000E+000
  no constraints, skipping   0.000000000000000E+000
  no constraints, skipping   0.000000000000000E+000

          --------
          Step   8
          --------
 
                                 NWChem DFT Module
                                 -----------------
 
 
                                        TMS
 
 
 
 
 solvent parameters
 solvname_short: h2o     
 solvname_long:  water                              
 dielec:       78.4000
 dielecinf:     1.7769

          ---------------
          -cosmo- solvent
          ---------------
 Cosmo: York-Karplus, doi: 10.1021/jp992097l
 dielectric constant -eps-     =  78.40
 screen = (eps-1)/(eps    )    =   0.98724
 surface charge correction     = lagrangian
 -lineq- algorithm             =   0
 -bem- low  level              =   2
 -bem- from -octahedral-
 gaussian surface charge width =   0.98000
 degree of switching           =   1.00000
 switching function tolerance  =   0.00010
 atomic radii = 
 --------------
    1 14.000  2.457
    2  6.000  2.000
    3  6.000  2.000
    4  6.000  2.000
    5  6.000  2.000
    6  1.000  1.300
    7  1.000  1.300
    8  1.000  1.300
    9  1.000  1.300
   10  1.000  1.300
   11  1.000  1.300
   12  1.000  1.300
   13  1.000  1.300
   14  1.000  1.300
   15  1.000  1.300
   16  1.000  1.300
   17  1.000  1.300

 solvent accessible surface
 --------------------------

 ---------- ATOMIC COORDINATES (A.U.) ------------ VDWR(ANG.) --
     1   -0.00214130    0.00192299    0.00349780     2.457
     2    1.68581229    2.87275880    1.27424457     2.000
     3    2.38411958   -2.27632419   -1.34599912     2.000
     4   -2.27007038    0.99245510   -2.56270891     2.000
     5   -1.80415684   -1.58563102    2.63684442     2.000
     6    0.35085413    4.23310028    2.06494417     1.300
     7    3.01301563    2.34829308    2.76491178     1.300
     8    2.75223343    3.82064773   -0.21642140     1.300
     9    3.46218601   -1.40056242   -2.87219120     1.300
    10    3.71938888   -2.89620273    0.09973355     1.300
    11    1.45188484   -3.95250929   -2.10734506     1.300
    12   -3.26597926   -0.64015689   -3.33770452     1.300
    13   -3.68184804    2.31196402   -1.83906811     1.300
    14   -1.27016138    1.91825461   -4.11241886     1.300
    15   -2.79966907   -3.25613631    1.94663543     1.300
    16   -0.53317799   -2.18549503    4.14761190     1.300
    17   -3.20190752   -0.30605856    3.45331669     1.300
 number of segments per atom =         32
 number of   points per atom =         32
 atom (   nspa,  nppa )
 ----------------------
    1 (     12,     0 )       0
    2 (     16,     0 )       0
    3 (     17,     0 )       0
    4 (     16,     0 )       0
    5 (     14,     0 )       0
    6 (     15,     0 )       0
    7 (     16,     0 )       0
    8 (     16,     0 )       0
    9 (     15,     0 )       0
   10 (     16,     0 )       0
   11 (     13,     0 )       0
   12 (     14,     0 )       0
   13 (     15,     0 )       0
   14 (     15,     0 )       0
   15 (     14,     0 )       0
   16 (     16,     0 )       0
   17 (     15,     0 )       0
 number of -cosmo- surface points =      255
 molecular surface =    158.983 angstrom**2
 molecular volume  =     90.541 angstrom**3
 G(cav/disp)       =      1.655 kcal/mol
 ...... end of -cosmo- initialization ......


  Caching 1-el integrals 
   Time after variat. SCF:   3690.3
   Time prior to 1st pass:   3690.3


         Total DFT energy =     -449.288137552838
      One electron energy =    -1102.126760138719
           Coulomb energy =      454.640334581726
    Exchange-Corr. energy =      -47.239147893283
 Nuclear repulsion energy =      245.479420330142

             COSMO energy =       -0.041984432703

 Numeric. integr. density =       50.000000084103

     Total iterative time =    361.4s


                                   COSMO solvation results
                                   -----------------------

                 gas phase energy =      -449.286331537252
                 sol phase energy =      -449.288137552838
 (electrostatic) solvation energy =         0.001806015587 (    1.13 kcal/mol)


                         DFT ENERGY GRADIENTS

    atom               coordinates                        gradient
                 x          y          z           x          y          z
   1 Si     -0.002141   0.001923   0.003498   -0.000091   0.000001   0.000124
   2 C       1.685812   2.872759   1.274245   -0.000121  -0.000026  -0.000080
   3 C       2.384120  -2.276324  -1.345999   -0.000020   0.000099   0.000051
   4 C      -2.270070   0.992455  -2.562709    0.000016  -0.000011   0.000097
   5 C      -1.804157  -1.585631   2.636844    0.000028  -0.000004  -0.000055
   6 H       0.350854   4.233100   2.064944    0.000020   0.000029   0.000019
   7 H       3.013016   2.348293   2.764912    0.000040   0.000010  -0.000009
   8 H       2.752233   3.820648  -0.216421    0.000060   0.000004   0.000025
   9 H       3.462186  -1.400562  -2.872191   -0.000002  -0.000025  -0.000040
  10 H       3.719389  -2.896203   0.099734    0.000030  -0.000020  -0.000017
  11 H       1.451885  -3.952509  -2.107345    0.000026  -0.000024  -0.000016
  12 H      -3.265979  -0.640157  -3.337705    0.000021  -0.000017  -0.000041
  13 H      -3.681848   2.311964  -1.839068   -0.000007   0.000022  -0.000049
  14 H      -1.270161   1.918255  -4.112419   -0.000002  -0.000030  -0.000043
  15 H      -2.799669  -3.256136   1.946635    0.000005  -0.000009   0.000007
  16 H      -0.533178  -2.185495   4.147612    0.000005   0.000008   0.000014
  17 H      -3.201908  -0.306059   3.453317   -0.000007  -0.000007   0.000015
 
  no constraints, skipping   0.000000000000000E+000

  Step       Energy      Delta E   Gmax     Grms     Xrms     Xmax   Walltime
  ---- ---------------- -------- -------- -------- -------- -------- --------
@    8    -449.28813755 -7.6D-07  0.00004  0.00001  0.00262  0.00588   4142.1
                                                                    

  no constraints, skipping   0.000000000000000E+000
  no constraints, skipping   0.000000000000000E+000
  no constraints, skipping   0.000000000000000E+000
  no constraints, skipping   0.000000000000000E+000

          --------
          Step   9
          --------
 
                                 NWChem DFT Module
                                 -----------------
 
 
                                        TMS
 
 
 
 
 solvent parameters
 solvname_short: h2o     
[...]
 dielectric constant -eps-     =  78.40
 screen = (eps-1)/(eps    )    =   0.98724
 surface charge correction     = lagrangian
 -lineq- algorithm             =   0
 -bem- low  level              =   2
 -bem- from -octahedral-
 gaussian surface charge width =   0.98000
 degree of switching           =   1.00000
 switching function tolerance  =   0.00010
 atomic radii = 
 --------------
    1 14.000  2.457
    2  6.000  2.000
    3  6.000  2.000
    4  6.000  2.000
    5  6.000  2.000
    6  1.000  1.300
    7  1.000  1.300
    8  1.000  1.300
    9  1.000  1.300
   10  1.000  1.300
   11  1.000  1.300
   12  1.000  1.300
   13  1.000  1.300
   14  1.000  1.300
   15  1.000  1.300
   16  1.000  1.300
   17  1.000  1.300

 solvent accessible surface
 --------------------------

 ---------- ATOMIC COORDINATES (A.U.) ------------ VDWR(ANG.) --
     1   -0.00007551    0.00099304    0.00135574     2.457
     2    1.68609366    2.87311250    1.27202943     2.000
     3    2.38567343   -2.27936330   -1.34522273     2.000
     4   -2.27068046    0.99268815   -2.56216942     2.000
     5   -1.80316748   -1.58429701    2.63581168     2.000
     6    0.34812043    4.22987365    2.06382864     1.300
     7    3.01508435    2.35086855    2.76166730     1.300
     8    2.74801699    3.82394855   -0.21988154     1.300
     9    3.47229912   -1.40251607   -2.86459124     1.300
    10    3.71308364   -2.90463881    0.10539258     1.300
    11    1.45224070   -3.95163260   -2.11339016     1.300
    12   -3.26306384   -0.63996514   -3.34138578     1.300
    13   -3.68544884    2.30500157   -1.83121258     1.300
    14   -1.27501823    1.92776786   -4.10887048     1.300
    15   -2.80212903   -3.25290561    1.94600270     1.300
    16   -0.53248635   -2.18659074    4.14581306     1.300
    17   -3.19815959   -0.30202440    3.45270595     1.300
 number of segments per atom =         32
 number of   points per atom =         32
 atom (   nspa,  nppa )
 ----------------------
    1 (     12,     0 )       0
    2 (     16,     0 )       0
    3 (     17,     0 )       0
    4 (     16,     0 )       0
    5 (     14,     0 )       0
    6 (     15,     0 )       0
    7 (     16,     0 )       0
    8 (     16,     0 )       0
    9 (     15,     0 )       0
   10 (     15,     0 )       0
   11 (     13,     0 )       0
   12 (     14,     0 )       0
   13 (     15,     0 )       0
   14 (     15,     0 )       0
   15 (     14,     0 )       0
   16 (     16,     0 )       0
   17 (     15,     0 )       0
 number of -cosmo- surface points =      254
 molecular surface =    159.017 angstrom**2
 molecular volume  =     90.567 angstrom**3
 G(cav/disp)       =      1.655 kcal/mol
 ...... end of -cosmo- initialization ......


 SCF residual:   1.150917691240900E-004

 Wrote CPHF data to ./molecule.shieldcphf

 Calc. par tensor-> nonrel
      Atom:    1  Si
        Diamagnetic
    884.7611      0.0063     -0.0003
      0.0063    884.7706     -0.0006
     -0.0003     -0.0006    884.7619

        Paramagnetic
   -556.9430      0.0108     -0.1531
      0.0108   -556.8956     -0.0204
     -0.1531     -0.0204   -556.9921

        Total Shielding Tensor
    327.8182      0.0171     -0.1535
      0.0171    327.8750     -0.0210
     -0.1535     -0.0210    327.7699

           isotropic =     327.8210
          anisotropy =       0.2054

          Principal Components and Axis System
                 1           2           3
              327.9579    327.8666    327.6386

      1         0.7206     -0.2457      0.6484
      2         0.3061      0.9518      0.0205
      3        -0.6221      0.1837      0.7611



      Atom:    2  C 
        Diamagnetic
    247.4129      6.7059      2.9468
      6.7059    254.9142      5.0391
      2.9468      5.0391    245.6994

        Paramagnetic
    -63.8634     -3.2302     -1.4776
     -3.2302    -67.5395     -2.4534
     -1.4776     -2.4534    -62.9884

        Total Shielding Tensor
    183.5495      3.4757      1.4691
      3.4757    187.3747      2.5857
      1.4691      2.5857    182.7109

           isotropic =     184.5450
          anisotropy =       9.0169

          Principal Components and Axis System
                 1           2           3
              190.5563    181.6047    181.4741

      1         0.4741     -0.5090      0.7184
      2         0.8060     -0.0775     -0.5868
      3         0.3544      0.8573      0.3735



      Atom:    3  C 
        Diamagnetic
    251.4490     -7.4099     -4.4637
     -7.4099    250.7699      4.2568
     -4.4637      4.2568    246.0880

        Paramagnetic
    -65.9041      3.5991      2.1978
      3.5991    -65.6016     -2.0990
      2.1978     -2.0990    -63.2805

        Total Shielding Tensor
    185.5449     -3.8108     -2.2659
     -3.8108    185.1682      2.1579
     -2.2659      2.1579    182.8075

           isotropic =     184.5069
          anisotropy =       8.9187

          Principal Components and Axis System
                 1           2           3
              190.4527    181.5412    181.5268

      1         0.6703      0.7037      0.2355
      2        -0.6381      0.7086     -0.3012
      3        -0.3788      0.0516      0.9240



      Atom:    4  C 
        Diamagnetic
    250.6567     -3.0942      7.9996
     -3.0942    244.8749     -3.4930
      7.9996     -3.4930    252.5919

        Paramagnetic
    -65.5074      1.4838     -3.8346
      1.4838    -62.5923      1.7135
     -3.8346      1.7135    -66.4671

        Total Shielding Tensor
    185.1493     -1.6103      4.1650
     -1.6103    182.2825     -1.7795
      4.1650     -1.7795    186.1248

           isotropic =     184.5189
          anisotropy =       9.0151

          Principal Components and Axis System
                 1           2           3
              190.5289    181.5867    181.4410

      1         0.6387      0.0836      0.7649
      2        -0.2794      0.9514      0.1293
      3         0.7169      0.2964     -0.6310



      Atom:    5  C 
        Diamagnetic
    248.0686      3.9408     -6.5311
      3.9408    247.1340     -5.7563
     -6.5311     -5.7563    253.1588

        Paramagnetic
    -64.2181     -1.9872      3.2271
     -1.9872    -63.8757      2.7840
      3.2271      2.7840    -66.7315

        Total Shielding Tensor
    183.8505      1.9536     -3.3040
      1.9536    183.2583     -2.9723
     -3.3040     -2.9723    186.4273

           isotropic =     184.5121
          anisotropy =       8.8997

          Principal Components and Axis System
                 1           2           3
              190.4452    181.6197    181.4713

      1        -0.5030      0.8547      0.1281
      2        -0.4435     -0.3825      0.8105
      3         0.7418      0.3509      0.5715



      Atom:    6  H 
        Diamagnetic
     29.2201     -3.9871     -2.4974
     -3.9871     34.7346      5.9982
     -2.4974      5.9982     26.5153

        Paramagnetic
      1.6962      1.1536      0.8326
      1.1536     -0.2307     -2.5196
      0.8326     -2.5196      3.3642

        Total Shielding Tensor
     30.9163     -2.8335     -1.6648
     -2.8335     34.5039      3.4787
     -1.6648      3.4787     29.8795

           isotropic =      31.7666
          anisotropy =       9.2164

          Principal Components and Axis System
                 1           2           3
               37.9108     29.3844     28.0045

      1        -0.4251      0.9017      0.0789
      2         0.7951      0.4136     -0.4434
      3         0.4325      0.1257      0.8928



      Atom:    7  H 
        Diamagnetic
     31.3153      0.6876      8.2750
      0.6876     27.1722      0.0412
      8.2750      0.0412     32.0151

        Paramagnetic
      1.4187     -0.5074     -3.3449
     -0.5074      2.2136     -0.0861
     -3.3449     -0.0861      1.1993

        Total Shielding Tensor
     32.7340      0.1803      4.9302
      0.1803     29.3858     -0.0449
      4.9302     -0.0449     33.2145

           isotropic =      31.7781
          anisotropy =       9.1997

          Principal Components and Axis System
                 1           2           3
               37.9113     29.4039     28.0191

      1         0.6898      0.0776      0.7199
      2         0.0108      0.9930     -0.1174
      3         0.7239     -0.0887     -0.6841



      Atom:    8  H 
        Diamagnetic
     29.0179      6.4913     -4.3685
      6.4913     31.1977     -3.6305
     -4.3685     -3.6305     30.2217

        Paramagnetic
      2.3175     -2.7811      1.5523
     -2.7811      1.0733      1.0092
      1.5523      1.0092      1.4256

        Total Shielding Tensor
     31.3354      3.7102     -2.8163
      3.7102     32.2710     -2.6213
     -2.8163     -2.6213     31.6473

           isotropic =      31.7512
          anisotropy =       9.2152

          Principal Components and Axis System
                 1           2           3
               37.8947     29.3783     27.9807

      1         0.5786      0.1608      0.7996
      2         0.6256      0.5415     -0.5615
      3        -0.5233      0.8252      0.2127



      Atom:    9  H 
        Diamagnetic
     30.8931      0.5262     -7.9161
      0.5262     27.1709     -2.3099
     -7.9161     -2.3099     32.4970

        Paramagnetic
      1.4104      0.2022      3.2206
      0.2022      2.4006      0.8584
      3.2206      0.8584      0.9729

        Total Shielding Tensor
     32.3035      0.7285     -4.6955
      0.7285     29.5715     -1.4515
     -4.6955     -1.4515     33.4698

           isotropic =      31.7816
          anisotropy =       9.1991

          Principal Components and Axis System
                 1           2           3
               37.9144     29.4086     28.0218

      1        -0.6447     -0.3501      0.6796
      2        -0.1853      0.9340      0.3053
      3         0.7416     -0.0709      0.6671



      Atom:   10  H 
        Diamagnetic
     33.0002     -6.1552      5.0982
     -6.1552     27.5657     -2.1138
      5.0982     -2.1138     29.8831

        Paramagnetic
      0.5922      2.7026     -1.7460
      2.7026      2.6568      0.4527
     -1.7460      0.4527      1.5601

        Total Shielding Tensor
     33.5924     -3.4526      3.3522
     -3.4526     30.2225     -1.6611
      3.3522     -1.6611     31.4432

           isotropic =      31.7527
          anisotropy =       9.2216

          Principal Components and Axis System
                 1           2           3
               37.9004     29.3726     27.9850

      1         0.7441     -0.2906      0.6015
      2        -0.4428      0.4596      0.7698
      3         0.5002      0.8392     -0.2133



      Atom:   11  H 
        Diamagnetic
     27.5921      2.0968      0.7068
      2.0968     36.4234      6.4337
      0.7068      6.4337     26.5181

        Paramagnetic
      2.1547     -0.5544     -0.0591
     -0.5544     -0.7051     -2.6736
     -0.0591     -2.6736      3.3318

        Total Shielding Tensor
     29.7468      1.5423      0.6477
      1.5423     35.7183      3.7601
      0.6477      3.7601     29.8499

           isotropic =      31.7717
          anisotropy =       9.1863

          Principal Components and Axis System
                 1           2           3
               37.8959     29.4106     28.0085

      1         0.2008      0.9775      0.0652
      2         0.8812     -0.1512     -0.4479
      3         0.4280     -0.1474      0.8917



      Atom:   12  H 
        Diamagnetic
     29.8490      4.8021      6.0909
      4.8021     31.4757      3.7378
      6.0909      3.7378     29.1460

        Paramagnetic
      1.8383     -1.6343     -2.7225
     -1.6343      1.0071     -1.1161
     -2.7225     -1.1161      1.9743

        Total Shielding Tensor
     31.6873      3.1678      3.3685
      3.1678     32.4828      2.6217
      3.3685      2.6217     31.1203

           isotropic =      31.7635
          anisotropy =       9.2044

          Principal Components and Axis System
                 1           2           3
               37.8998     29.3902     28.0005

      1         0.5953      0.3588     -0.7190
      2         0.6044     -0.7896      0.1064
      3         0.5295      0.4978      0.6869



      Atom:   13  H 
        Diamagnetic
     33.5646     -7.9650     -0.2177
     -7.9650     29.8849      1.2789
     -0.2177      1.2789     27.0748

        Paramagnetic
      0.4208      3.2065     -0.2662
      3.2065      2.0477     -0.4989
     -0.2662     -0.4989      2.3472

        Total Shielding Tensor
     33.9854     -4.7586     -0.4840
     -4.7586     31.9326      0.7800
     -0.4840      0.7800     29.4221

           isotropic =      31.7800
          anisotropy =       9.2032

          Principal Components and Axis System
                 1           2           3
               37.9155     29.4029     28.0217

      1         0.7721      0.2182      0.5969
      2        -0.6273      0.1115      0.7707
      3        -0.1016      0.9695     -0.2230



      Atom:   14  H 
        Diamagnetic
     27.7065      1.6872     -2.0763
      1.6872     26.9827     -6.6718
     -2.0763     -6.6718     35.7836

        Paramagnetic
      2.1415     -0.5857      0.4530
     -0.5857      3.2089      2.7180
      0.4530      2.7180     -0.5213

        Total Shielding Tensor
     29.8480      1.1015     -1.6232
      1.1015     30.1917     -3.9538
     -1.6232     -3.9538     35.2623

           isotropic =      31.7673
          anisotropy =       9.1956

          Principal Components and Axis System
                 1           2           3
               37.8977     29.3987     28.0056

      1        -0.2358      0.9631     -0.1295
      2        -0.4701      0.0036      0.8826
      3         0.8505      0.2690      0.4519



      Atom:   15  H 
        Diamagnetic
     28.8489      7.7038     -0.2663
      7.7038     34.6151      0.9929
     -0.2663      0.9929     27.0907

        Paramagnetic
      2.3462     -3.1477      0.4115
     -3.1477      0.1167     -0.2834
      0.4115     -0.2834      2.3169

        Total Shielding Tensor
     31.1951      4.5561      0.1452
      4.5561     34.7318      0.7095
      0.1452      0.7095     29.4075

           isotropic =      31.7781
          anisotropy =       9.1876

          Principal Components and Axis System
                 1           2           3
               37.9032     29.4138     28.0175

      1         0.5613     -0.2127      0.7998
      2         0.8239      0.0521     -0.5643
      3         0.0784      0.9757      0.2045



      Atom:   16  H 
        Diamagnetic
     28.8261     -1.3866      4.1470
     -1.3866     26.0835     -5.7236
      4.1470     -5.7236     35.6200

        Paramagnetic
      1.8271      0.2732     -1.2927
      0.2732      3.4341      2.4619
     -1.2927      2.4619     -0.4942

        Total Shielding Tensor
     30.6533     -1.1134      2.8543
     -1.1134     29.5177     -3.2616
      2.8543     -3.2616     35.1258

           isotropic =      31.7656
          anisotropy =       9.2200

          Principal Components and Axis System
                 1           2           3
               37.9123     29.3844     28.0001

      1         0.3884      0.9145     -0.1132
      2        -0.3780      0.2702      0.8855
      3         0.8404     -0.3011      0.4507



      Atom:   17  H 
        Diamagnetic
     32.1798     -4.4504     -6.9915
     -4.4504     28.7245      1.9757
     -6.9915      1.9757     29.5938

        Paramagnetic
      1.0599      1.6074      2.9596
      1.6074      1.9574     -0.3448
      2.9596     -0.3448      1.7749

        Total Shielding Tensor
     33.2397     -2.8430     -4.0319
     -2.8430     30.6819      1.6309
     -4.0319      1.6309     31.3687

           isotropic =      31.7634
          anisotropy =       9.2086

          Principal Components and Axis System
                 1           2           3
               37.9025     29.3903     27.9974

      1         0.7266      0.0940      0.6806
      2        -0.4105      0.8537      0.3204
      3        -0.5509     -0.5122      0.6589



 
 
                                NWChem Input Module
                                -------------------
 
 
 
 
                                     CITATION
                                     --------
                Please cite the following reference when publishing
                           results obtained with NWChem:
 
          E. Apr, E. J. Bylaska, W. A. de Jong, N. Govind, K. Kowalski,
       T. P. Straatsma, M. Valiev, H. J. J. van Dam, Y. Alexeev, J. Anchell,
       V. Anisimov, F. W. Aquino, R. Atta-Fynn, J. Autschbach, N. P. Bauman,
     J. C. Becca, D. E. Bernholdt, K. Bhaskaran-Nair, S. Bogatko, P. Borowski,
        J. Boschen, J. Brabec, A. Bruner, E. Caut, Y. Chen, G. N. Chuev,
      C. J. Cramer, J. Daily, M. J. O. Deegan, T. H. Dunning Jr., M. Dupuis,
   K. G. Dyall, G. I. Fann, S. A. Fischer, A. Fonari, H. Frchtl, L. Gagliardi,
      J. Garza, N. Gawande, S. Ghosh, K. Glaesemann, A. W. Gtz, J. Hammond,
       V. Helms, E. D. Hermes, K. Hirao, S. Hirata, M. Jacquelin, L. Jensen,
   B. G. Johnson, H. Jnsson, R. A. Kendall, M. Klemm, R. Kobayashi, V. Konkov,
      S. Krishnamoorthy, M. Krishnan, Z. Lin, R. D. Lins, R. J. Littlefield,
      A. J. Logsdail, K. Lopata, W. Ma, A. V. Marenich, J. Martin del Campo,
   D. Mejia-Rodriguez, J. E. Moore, J. M. Mullin, T. Nakajima, D. R. Nascimento,
    J. A. Nichols, P. J. Nichols, J. Nieplocha, A. Otero-de-la-Roza, B. Palmer,
    A. Panyala, T. Pirojsirikul, B. Peng, R. Peverati, J. Pittner, L. Pollack,
   R. M. Richard, P. Sadayappan, G. C. Schatz, W. A. Shelton, D. W. Silverstein,
   D. M. A. Smith, T. A. Soares, D. Song, M. Swart, H. L. Taylor, G. S. Thomas,
            V. Tipparaju, D. G. Truhlar, K. Tsemekhman, T. Van Voorhis,
     . Vzquez-Mayagoitia, P. Verma, O. Villa, A. Vishnu, K. D. Vogiatzis,
        D. Wang, J. H. Weare, M. J. Williamson, T. L. Windus, K. Woliski,
        A. T. Wong, Q. Wu, C. Yang, Q. Yu, M. Zacharias, Z. Zhang, Y. Zhao,
                                and R. J. Harrison
                        "NWChem: Past, present, and future
                         J. Chem. Phys. 152, 184102 (2020)
                               doi:10.1063/5.0004997
 
                                      AUTHORS
                                      -------
     E. Apra, E. J. Bylaska, N. Govind, K. Kowalski, M. Valiev, W. A. de Jong,
      T. P. Straatsma, H. J. J. van Dam, D. Wang, T. L. Windus, N. P. Bauman,
       A. Panyala, J. Hammond, J. Autschbach, K. Bhaskaran-Nair, J. Brabec,
    K. Lopata, S. A. Fischer, S. Krishnamoorthy, M. Jacquelin, W. Ma, M. Klemm,
       O. Villa, Y. Chen, V. Anisimov, F. Aquino, S. Hirata, M. T. Hackler,
           Eric Hermes, L. Jensen, J. E. Moore, J. C. Becca, V. Konjkov,
            D. Mejia-Rodriguez, T. Risthaus, M. Malagoli, A. Marenich,
   A. Otero-de-la-Roza, J. Mullin, P. Nichols, R. Peverati, J. Pittner, Y. Zhao,
        P.-D. Fan, A. Fonari, M. J. Williamson, R. J. Harrison, J. R. Rehr,
      M. Dupuis, D. Silverstein, D. M. A. Smith, J. Nieplocha, V. Tipparaju,
      M. Krishnan, B. E. Van Kuiken, A. Vazquez-Mayagoitia, M. Swart, Q. Wu,
   T. Van Voorhis, A. A. Auer, M. Nooijen, L. D. Crosby, E. Brown, G. Cisneros,
     G. I. Fann, H. Fruchtl, J. Garza, K. Hirao, R. A. Kendall, J. A. Nichols,
       K. Tsemekhman, K. Wolinski, J. Anchell, D. E. Bernholdt, P. Borowski,
       T. Clark, D. Clerc, H. Dachsel, M. J. O. Deegan, K. Dyall, D. Elwood,
      E. Glendening, M. Gutowski, A. C. Hess, J. Jaffe, B. G. Johnson, J. Ju,
        R. Kobayashi, R. Kutteh, Z. Lin, R. Littlefield, X. Long, B. Meng,
      T. Nakajima, S. Niu, L. Pollack, M. Rosing, K. Glaesemann, G. Sandrone,
      M. Stave, H. Taylor, G. Thomas, J. H. van Lenthe, A. T. Wong, Z. Zhang.

 Total times  cpu:    55271.3s     wall:    55657.3s
