

 Parallel Execution: Process Information
 ==============================================================================
 Rank   Node Name                              NodeID   MyNodeRank  NodeMaster
    0   lxir124                                   0          0          0
    1   lxir124                                   0          1         -1
    2   lxir124                                   0          2         -1
    3   lxir124                                   0          3         -1
    4   lxir124                                   0          4         -1
    5   lxir124                                   0          5         -1
    6   lxir124                                   0          6         -1
    7   lxir124                                   0          7         -1
    8   lxir124                                   0          8         -1
    9   lxir124                                   0          9         -1
   10   lxir124                                   0         10         -1
   11   lxir124                                   0         11         -1
   12   lxir124                                   0         12         -1
   13   lxir124                                   0         13         -1
   14   lxir124                                   0         14         -1
   15   lxir124                                   0         15         -1
   16   lxir124                                   0         16         -1
   17   lxir124                                   0         17         -1
   18   lxir124                                   0         18         -1
   19   lxir124                                   0         19         -1
 ==============================================================================


May use up to 122942MB of RAM as shared memory on node 0

 *******************************************************************************
 *                                                                             *
 *  --------------------------------                                           *
 *   Amsterdam Modeling Suite (AMS)              2024.101                      *
 *  --------------------------------                                           *
 *                                               r121099 2024-04-19            *
 *                                                                             *
 *                                                                             *
 *                              =================                              *
 *                              |               |                              *
 *                              |     A M S     |                              *
 *                              |               |                              *
 *                              =================                              *
 *                                                                             *
 *                                                                             *
 *   Online information and documentation:  https://www.scm.com/support/       *
 *   E-mail:  support@scm.com   info@scm.com                                   *
 *                                                                             *
 *   Scientific publications using AMS results must be properly referenced     *
 *   See the User Manuals (or the web site) for recommended citations          *
 *   The terms and conditions of the End User License Agreement apply to       *
 *   the use of AMS, https://www.scm.com/license-terms/                        *
 *                                                                             *
 **********************  x86_64_linux_intel / intelmpi  ************************
 
 Licensed to: Dr. Valeria Pershina / GSI Helmholtzzentrum f?r Schwerionenforschung GmbH / Darmstadt / Germany 2024-05-07 16:20:14
 SCM User ID: u15059
  
 AMS 2024.101  RunTime: May25-2024 13:29:21  ShM Nodes: 1  Procs: 20

 AMS jobname: ams
 AMS jobid  : 2052911713

 Start   directory: /data.local1/milias/work/open-collection/theoretical_chemistry/software/ams/runs/adsoptions/Se_trigonal_slab/tmp.milias.21075.0.noindex/
 Results directory: /data.local1/milias/work/open-collection/theoretical_chemistry/software/ams/runs/adsoptions/Se_trigonal_slab/At_on_Se48_111slab.uff_geopt_phonons.results/
 Scratch directory: /data.local1/milias/scratch/amstmp_ams_kid0.2052911713/


 Communication costs MPI_COMM_WORLD:      2.011 usec per message,   0.0096 usec per 8-byte item
 Communication costs for intra-node:      1.980 usec per message,   0.0090 usec per 8-byte item

 RNG seed: -1690583761 -855161844 -1175231774 657318019 -1101581306 372501291 -1354607792 869703229

       ***************************
       *  GEOMETRY OPTIMIZATION  *
       ***************************

FIRE optimizer config
       nMin:  5 steps
    dtStart:  0.2500 fs
      dtMax:  1.0000 fs
       fInc:  1.1000
       fDec:  0.5000
 alphaStart:  0.1000
     fAlpha:  0.9900
 Opt. latt.:  F
Convergence criteria:
       Energy:  0.000010 Ha per atom
    Gradients:  0.001000 Ha/Angstrom
         Step:  0.010000 Angstrom
Stress energy:  0.000500 Ha per atom
 
--------
Geometry
--------
Formula: AtSe48
Atoms
  Index Symbol   x (angstrom)   y (angstrom)   z (angstrom)
      1     Se     4.71043219     6.07460281     2.25200656       ForceField.Type=Se3+2 ForceField.Charge=0.0
      2     Se     6.26037783     6.94015302     1.25910522       ForceField.Type=Se3+2 ForceField.Charge=0.0
      3     Se     2.73267184     7.93529001    -0.96300504       ForceField.Type=Se3+2 ForceField.Charge=0.0
      4     Se     0.82921362     4.50813591     0.11225479       ForceField.Type=Se3+2 ForceField.Charge=0.0
      5     Se     3.34872226     8.49949229     3.08911154       ForceField.Type=Se3+2 ForceField.Charge=0.0
      6     Se     0.92558504     5.45419992     1.90723559       ForceField.Type=Se3+2 ForceField.Charge=0.0
      7     Se     8.65403547     3.60408828     6.72960498       ForceField.Type=Se3+2 ForceField.Charge=0.0
      8     Se     2.92325876     4.08443869     4.96958397       ForceField.Type=Se3+2 ForceField.Charge=0.0
      9     Se     4.90978861     7.39672959     3.78576132       ForceField.Type=Se3+2 ForceField.Charge=0.0
     10     Se     2.15786523     7.83540300     4.59871390       ForceField.Type=Se3+2 ForceField.Charge=0.0
     11     Se     4.38894561     6.66029284     7.89008872       ForceField.Type=Se3+2 ForceField.Charge=0.0
     12     Se     4.70562675     3.37558691     5.64605852       ForceField.Type=Se3+2 ForceField.Charge=0.0
     13     Se     0.38624309    -0.13547117     2.24582937       ForceField.Type=Se3+2 ForceField.Charge=0.0
     14     Se     1.93156128     0.70680709     1.22583615       ForceField.Type=Se3+2 ForceField.Charge=0.0
     15     Se    -1.66849011     1.74641915    -0.93258310       ForceField.Type=Se3+2 ForceField.Charge=0.0
     16     Se    -3.49659605    -1.66837133     0.11794535       ForceField.Type=Se3+2 ForceField.Charge=0.0
     17     Se    -0.97888678     2.29671521     3.05998433       ForceField.Type=Se3+2 ForceField.Charge=0.0
     18     Se    -3.40033195    -0.75008550     1.92707203       ForceField.Type=Se3+2 ForceField.Charge=0.0
     19     Se     4.29459084    -2.58073339     6.73325671       ForceField.Type=Se3+2 ForceField.Charge=0.0
     20     Se    -1.40798329    -2.12114943     4.95656548       ForceField.Type=Se3+2 ForceField.Charge=0.0
     21     Se     0.59779792     1.21473481     3.75356904       ForceField.Type=Se3+2 ForceField.Charge=0.0
     22     Se    -2.14820776     1.64130575     4.59011694       ForceField.Type=Se3+2 ForceField.Charge=0.0
     23     Se     0.07200836     0.45061056     7.87178419       ForceField.Type=Se3+2 ForceField.Charge=0.0
     24     Se     0.37990622    -2.82219611     5.62674617       ForceField.Type=Se3+2 ForceField.Charge=0.0
     25     Se    -1.89298447     6.06863930     2.24788801       ForceField.Type=Se3+2 ForceField.Charge=0.0
     26     Se    -0.33288358     6.91160772     1.25099986       ForceField.Type=Se3+2 ForceField.Charge=0.0
     27     Se    -3.96289590     8.09181966    -0.96226461       ForceField.Type=Se3+2 ForceField.Charge=0.0
     28     Se    -5.72023864     4.57462939     0.11106758       ForceField.Type=Se3+2 ForceField.Charge=0.0
     29     Se    -3.22057260     8.50850705     3.09764792       ForceField.Type=Se3+2 ForceField.Charge=0.0
     30     Se    -5.66985446     5.49999951     1.91803554       ForceField.Type=Se3+2 ForceField.Charge=0.0
     31     Se     2.02377510     3.60777379     6.72746044       ForceField.Type=Se3+2 ForceField.Charge=0.0
     32     Se    -3.70162043     4.06861618     4.94422905       ForceField.Type=Se3+2 ForceField.Charge=0.0
     33     Se    -1.67083405     7.38401442     3.78446055       ForceField.Type=Se3+2 ForceField.Charge=0.0
     34     Se    -4.41941576     7.84014877     4.59928429       ForceField.Type=Se3+2 ForceField.Charge=0.0
     35     Se    -2.18824717     6.64212908     7.87950416       ForceField.Type=Se3+2 ForceField.Charge=0.0
     36     Se    -1.89311030     3.39603269     5.58758490       ForceField.Type=Se3+2 ForceField.Charge=0.0
     37     Se     6.99117305    -0.12710212     2.27285632       ForceField.Type=Se3+2 ForceField.Charge=0.0
     38     Se     8.55588521     0.72224909     1.28935195       ForceField.Type=Se3+2 ForceField.Charge=0.0
     39     Se     5.09881209     1.74394096    -0.86685280       ForceField.Type=Se3+2 ForceField.Charge=0.0
     40     Se     3.15996406    -1.69691469     0.15656340       ForceField.Type=Se3+2 ForceField.Charge=0.0
     41     Se     5.67068256     2.31655743     3.12180305       ForceField.Type=Se3+2 ForceField.Charge=0.0
     42     Se     3.21555519    -0.70597695     1.92817692       ForceField.Type=Se3+2 ForceField.Charge=0.0
     43     Se    10.90804598    -2.59353974     6.72031345       ForceField.Type=Se3+2 ForceField.Charge=0.0
     44     Se     5.16980386    -2.12504213     4.95772746       ForceField.Type=Se3+2 ForceField.Charge=0.0
     45     Se     7.20687487     1.17901863     3.81781557       ForceField.Type=Se3+2 ForceField.Charge=0.0
     46     Se     4.45309640     1.64539434     4.60670222       ForceField.Type=Se3+2 ForceField.Charge=0.0
     47     Se     6.69847756     0.43575798     7.89827502       ForceField.Type=Se3+2 ForceField.Charge=0.0
     48     Se     6.96213027    -2.82311684     5.61880069       ForceField.Type=Se3+2 ForceField.Charge=0.0
     49     At     1.64674195     0.57131095    -3.13810333       ForceField.Type=At ForceField.Charge=0.0
 
Lattice vectors (angstrom)
      1    13.20634020     0.00000000     0.00000000
      2    -4.54518103    12.39954640     0.00000000
 
Unit cell area (angstrom^2)       163.75263
 
Total System Charge             0.00000
Bonding info available!
 
 
------------------------
MM Engine configuration
------------------------
Force field type             UFF
 

Relaxing 147 nuclear degrees of freedom with FIRE.
 Rigid motions settings for: FIRE
 Atomic rotations (x,y,z):     F F F
 Atomic translations (x,y,z):  T T T
 Tolerance:                   1.000000000000000E-006
 
------------------------
UFF Engine configuration
------------------------
UFF Parameters file          general_db
UFF Elements file            elements_db
UFF MMAtomTypes file         mmatomtypes_db
 
  atom type UFF index
          1        55
          2       110
-----------------------
Assumed Input Structure
-----------------------
Atoms [Angstrom]
      Se       4.7104321876    6.0746028072    2.2520065622       Se3+2   0.000000000000
      Se       6.2603778271    6.9401530199    1.2591052152       Se3+2   0.000000000000
      Se       2.7326718400    7.9352900147   -0.9630050392       Se3+2   0.000000000000
      Se       0.8292136244    4.5081359145    0.1122547911       Se3+2   0.000000000000
      Se       3.3487222637    8.4994922905    3.0891115439       Se3+2   0.000000000000
      Se       0.9255850432    5.4541999227    1.9072355865       Se3+2   0.000000000000
      Se       8.6540354715    3.6040882843    6.7296049829       Se3+2   0.000000000000
      Se       2.9232587562    4.0844386939    4.9695839676       Se3+2   0.000000000000
      Se       4.9097886055    7.3967295911    3.7857613188       Se3+2   0.000000000000
      Se       2.1578652349    7.8354029961    4.5987138959       Se3+2   0.000000000000
      Se       4.3889456091    6.6602928413    7.8900887247       Se3+2   0.000000000000
      Se       4.7056267471    3.3755869099    5.6460585199       Se3+2   0.000000000000
      Se       0.3862430914   -0.1354711723    2.2458293709       Se3+2   0.000000000000
      Se       1.9315612824    0.7068070897    1.2258361532       Se3+2   0.000000000000
      Se      -1.6684901104    1.7464191472   -0.9325830961       Se3+2   0.000000000000
      Se      -3.4965960454   -1.6683713317    0.1179453518       Se3+2   0.000000000000
      Se      -0.9788867761    2.2967152071    3.0599843303       Se3+2   0.000000000000
      Se      -3.4003319510   -0.7500855050    1.9270720298       Se3+2   0.000000000000
      Se       4.2945908373   -2.5807333912    6.7332567088       Se3+2   0.000000000000
      Se      -1.4079832877   -2.1211494261    4.9565654840       Se3+2   0.000000000000
      Se       0.5977979209    1.2147348063    3.7535690409       Se3+2   0.000000000000
      Se      -2.1482077645    1.6413057466    4.5901169368       Se3+2   0.000000000000
      Se       0.0720083593    0.4506105598    7.8717841866       Se3+2   0.000000000000
      Se       0.3799062216   -2.8221961138    5.6267461664       Se3+2   0.000000000000
      Se      -1.8929844713    6.0686392986    2.2478880096       Se3+2   0.000000000000
      Se      -0.3328835789    6.9116077222    1.2509998590       Se3+2   0.000000000000
      Se      -3.9628959042    8.0918196617   -0.9622646060       Se3+2   0.000000000000
      Se      -5.7202386423    4.5746293917    0.1110675816       Se3+2   0.000000000000
      Se      -3.2205725983    8.5085070496    3.0976479248       Se3+2   0.000000000000
      Se      -5.6698544632    5.4999995069    1.9180355384       Se3+2   0.000000000000
      Se       2.0237751010    3.6077737854    6.7274604374       Se3+2   0.000000000000
      Se      -3.7016204297    4.0686161844    4.9442290450       Se3+2   0.000000000000
      Se      -1.6708340468    7.3840144241    3.7844605542       Se3+2   0.000000000000
      Se      -4.4194157633    7.8401487679    4.5992842896       Se3+2   0.000000000000
      Se      -2.1882471731    6.6421290762    7.8795041556       Se3+2   0.000000000000
      Se      -1.8931102968    3.3960326895    5.5875849013       Se3+2   0.000000000000
      Se       6.9911730498   -0.1271021174    2.2728563158       Se3+2   0.000000000000
      Se       8.5558852051    0.7222490903    1.2893519516       Se3+2   0.000000000000
      Se       5.0988120883    1.7439409641   -0.8668528048       Se3+2   0.000000000000
      Se       3.1599640633   -1.6969146945    0.1565633981       Se3+2   0.000000000000
      Se       5.6706825570    2.3165574345    3.1218030502       Se3+2   0.000000000000
      Se       3.2155551916   -0.7059769460    1.9281769210       Se3+2   0.000000000000
      Se      10.9080459834   -2.5935397361    6.7203134535       Se3+2   0.000000000000
      Se       5.1698038565   -2.1250421253    4.9577274592       Se3+2   0.000000000000
      Se       7.2068748664    1.1790186288    3.8178155725       Se3+2   0.000000000000
      Se       4.4530963975    1.6453943399    4.6067022242       Se3+2   0.000000000000
      Se       6.6984775583    0.4357579789    7.8982750181       Se3+2   0.000000000000
      Se       6.9621302746   -2.8231168430    5.6188006908       Se3+2   0.000000000000
      At       1.6467419483    0.5713109476   -3.1381033275          At   0.000000000000
End

Bonds
    1      2    3.000000000000
    1      9    3.000000000000
    2     30    3.000000000000
    4      6    3.000000000000
    5      9    3.000000000000
    5     10    3.000000000000
    6     26    3.000000000000
    7     32    3.000000000000
    8     12    3.000000000000
    8     31    3.000000000000
   10     48    3.000000000000
   12     46    3.000000000000
   13     14    3.000000000000
   13     21    3.000000000000
   14     42    3.000000000000
   16     18    3.000000000000
   17     21    3.000000000000
   17     22    3.000000000000
   18     38    3.000000000000
   19     44    3.000000000000
   20     24    3.000000000000
   20     43    3.000000000000
   22     36    3.000000000000
   24     34    3.000000000000
   25     26    3.000000000000
   25     33    3.000000000000
   28     30    3.000000000000
   29     33    3.000000000000
   29     34    3.000000000000
   32     36    3.000000000000
   37     38    3.000000000000
   37     45    3.000000000000
   40     42    3.000000000000
   41     45    3.000000000000
   41     46    3.000000000000
   44     48    3.000000000000
End

Lattice [Angstrom]
  13.20634   0.00000   0.00000
  -4.54518  12.39955   0.00000
End


Geometry at FIRE step 1:
 
--------
Geometry
--------
Formula: AtSe48
Atoms
  Index Symbol   x (angstrom)   y (angstrom)   z (angstrom)
      1     Se     4.71043207     6.07460294     2.25200691       ForceField.Type=Se3+2 ForceField.Charge=0.0
      2     Se     6.26037767     6.94015296     1.25910535       ForceField.Type=Se3+2 ForceField.Charge=0.0
      3     Se     2.73267253     7.93528832    -0.96300599       ForceField.Type=Se3+2 ForceField.Charge=0.0
      4     Se     0.82921365     4.50813625     0.11225442       ForceField.Type=Se3+2 ForceField.Charge=0.0
      5     Se     3.34872230     8.49949239     3.08911171       ForceField.Type=Se3+2 ForceField.Charge=0.0
      6     Se     0.92558495     5.45419962     1.90723564       ForceField.Type=Se3+2 ForceField.Charge=0.0
      7     Se     8.65403564     3.60408896     6.72960500       ForceField.Type=Se3+2 ForceField.Charge=0.0
      8     Se     2.92325879     4.08443880     4.96958373       ForceField.Type=Se3+2 ForceField.Charge=0.0
      9     Se     4.90978861     7.39672977     3.78576143       ForceField.Type=Se3+2 ForceField.Charge=0.0
     10     Se     2.15786543     7.83540322     4.59871415       ForceField.Type=Se3+2 ForceField.Charge=0.0
     11     Se     4.38894519     6.66029289     7.89008887       ForceField.Type=Se3+2 ForceField.Charge=0.0
     12     Se     4.70562671     3.37558737     5.64605864       ForceField.Type=Se3+2 ForceField.Charge=0.0
     13     Se     0.38624333    -0.13547086     2.24582934       ForceField.Type=Se3+2 ForceField.Charge=0.0
     14     Se     1.93156187     0.70680741     1.22583669       ForceField.Type=Se3+2 ForceField.Charge=0.0
     15     Se    -1.66849281     1.74642335    -0.93258250       ForceField.Type=Se3+2 ForceField.Charge=0.0
     16     Se    -3.49659635    -1.66837156     0.11794576       ForceField.Type=Se3+2 ForceField.Charge=0.0
     17     Se    -0.97888675     2.29671505     3.05998457       ForceField.Type=Se3+2 ForceField.Charge=0.0
     18     Se    -3.40033235    -0.75008576     1.92707250       ForceField.Type=Se3+2 ForceField.Charge=0.0
     19     Se     4.29459108    -2.58073380     6.73325685       ForceField.Type=Se3+2 ForceField.Charge=0.0
     20     Se    -1.40798349    -2.12114956     4.95656529       ForceField.Type=Se3+2 ForceField.Charge=0.0
     21     Se     0.59779790     1.21473471     3.75356917       ForceField.Type=Se3+2 ForceField.Charge=0.0
     22     Se    -2.14820761     1.64130558     4.59011715       ForceField.Type=Se3+2 ForceField.Charge=0.0
     23     Se     0.07200789     0.45061078     7.87178438       ForceField.Type=Se3+2 ForceField.Charge=0.0
     24     Se     0.37990622    -2.82219587     5.62674557       ForceField.Type=Se3+2 ForceField.Charge=0.0
     25     Se    -1.89298442     6.06863939     2.24788802       ForceField.Type=Se3+2 ForceField.Charge=0.0
     26     Se    -0.33288339     6.91160784     1.25100014       ForceField.Type=Se3+2 ForceField.Charge=0.0
     27     Se    -3.96289525     8.09181885    -0.96226550       ForceField.Type=Se3+2 ForceField.Charge=0.0
     28     Se    -5.72023885     4.57462925     0.11106752       ForceField.Type=Se3+2 ForceField.Charge=0.0
     29     Se    -3.22057278     8.50850692     3.09764755       ForceField.Type=Se3+2 ForceField.Charge=0.0
     30     Se    -5.66985469     5.49999925     1.91803562       ForceField.Type=Se3+2 ForceField.Charge=0.0
     31     Se     2.02377501     3.60777456     6.72746026       ForceField.Type=Se3+2 ForceField.Charge=0.0
     32     Se    -3.70162026     4.06861597     4.94422880       ForceField.Type=Se3+2 ForceField.Charge=0.0
     33     Se    -1.67083429     7.38401452     3.78446039       ForceField.Type=Se3+2 ForceField.Charge=0.0
     34     Se    -4.41941586     7.84014881     4.59928395       ForceField.Type=Se3+2 ForceField.Charge=0.0
     35     Se    -2.18824712     6.64212930     7.87950429       ForceField.Type=Se3+2 ForceField.Charge=0.0
     36     Se    -1.89311021     3.39603263     5.58758498       ForceField.Type=Se3+2 ForceField.Charge=0.0
     37     Se     6.99117267    -0.12710241     2.27285691       ForceField.Type=Se3+2 ForceField.Charge=0.0
     38     Se     8.55588467     0.72224877     1.28935234       ForceField.Type=Se3+2 ForceField.Charge=0.0
     39     Se     5.09881220     1.74393885    -0.86685476       ForceField.Type=Se3+2 ForceField.Charge=0.0
     40     Se     3.15996468    -1.69691440     0.15656388       ForceField.Type=Se3+2 ForceField.Charge=0.0
     41     Se     5.67068261     2.31655723     3.12180352       ForceField.Type=Se3+2 ForceField.Charge=0.0
     42     Se     3.21555538    -0.70597705     1.92817763       ForceField.Type=Se3+2 ForceField.Charge=0.0
     43     Se    10.90804637    -2.59353955     6.72031357       ForceField.Type=Se3+2 ForceField.Charge=0.0
     44     Se     5.16980384    -2.12504211     4.95772765       ForceField.Type=Se3+2 ForceField.Charge=0.0
     45     Se     7.20687470     1.17901827     3.81781596       ForceField.Type=Se3+2 ForceField.Charge=0.0
     46     Se     4.45309653     1.64539444     4.60670279       ForceField.Type=Se3+2 ForceField.Charge=0.0
     47     Se     6.69847731     0.43575841     7.89827473       ForceField.Type=Se3+2 ForceField.Charge=0.0
     48     Se     6.96213044    -2.82311637     5.61880066       ForceField.Type=Se3+2 ForceField.Charge=0.0
     49     At     1.64674400     0.57130907    -3.13810519       ForceField.Type=At ForceField.Charge=0.0
 
Lattice vectors (angstrom)
      1    13.20634020     0.00000000     0.00000000
      2    -4.54518103    12.39954640     0.00000000
 
Unit cell area (angstrom^2)       163.75263
 
Total System Charge             0.00000
Bonding info available!
 
Geometry optimization converged

Optimized geometry:
 
--------
Geometry
--------
Formula: AtSe48
Atoms
  Index Symbol   x (angstrom)   y (angstrom)   z (angstrom)
      1     Se     4.71043207     6.07460294     2.25200691       ForceField.Type=Se3+2 ForceField.Charge=0.0
      2     Se     6.26037767     6.94015296     1.25910535       ForceField.Type=Se3+2 ForceField.Charge=0.0
      3     Se     2.73267253     7.93528832    -0.96300599       ForceField.Type=Se3+2 ForceField.Charge=0.0
      4     Se     0.82921365     4.50813625     0.11225442       ForceField.Type=Se3+2 ForceField.Charge=0.0
      5     Se     3.34872230     8.49949239     3.08911171       ForceField.Type=Se3+2 ForceField.Charge=0.0
      6     Se     0.92558495     5.45419962     1.90723564       ForceField.Type=Se3+2 ForceField.Charge=0.0
      7     Se     8.65403564     3.60408896     6.72960500       ForceField.Type=Se3+2 ForceField.Charge=0.0
      8     Se     2.92325879     4.08443880     4.96958373       ForceField.Type=Se3+2 ForceField.Charge=0.0
      9     Se     4.90978861     7.39672977     3.78576143       ForceField.Type=Se3+2 ForceField.Charge=0.0
     10     Se     2.15786543     7.83540322     4.59871415       ForceField.Type=Se3+2 ForceField.Charge=0.0
     11     Se     4.38894519     6.66029289     7.89008887       ForceField.Type=Se3+2 ForceField.Charge=0.0
     12     Se     4.70562671     3.37558737     5.64605864       ForceField.Type=Se3+2 ForceField.Charge=0.0
     13     Se     0.38624333    -0.13547086     2.24582934       ForceField.Type=Se3+2 ForceField.Charge=0.0
     14     Se     1.93156187     0.70680741     1.22583669       ForceField.Type=Se3+2 ForceField.Charge=0.0
     15     Se    -1.66849281     1.74642335    -0.93258250       ForceField.Type=Se3+2 ForceField.Charge=0.0
     16     Se    -3.49659635    -1.66837156     0.11794576       ForceField.Type=Se3+2 ForceField.Charge=0.0
     17     Se    -0.97888675     2.29671505     3.05998457       ForceField.Type=Se3+2 ForceField.Charge=0.0
     18     Se    -3.40033235    -0.75008576     1.92707250       ForceField.Type=Se3+2 ForceField.Charge=0.0
     19     Se     4.29459108    -2.58073380     6.73325685       ForceField.Type=Se3+2 ForceField.Charge=0.0
     20     Se    -1.40798349    -2.12114956     4.95656529       ForceField.Type=Se3+2 ForceField.Charge=0.0
     21     Se     0.59779790     1.21473471     3.75356917       ForceField.Type=Se3+2 ForceField.Charge=0.0
     22     Se    -2.14820761     1.64130558     4.59011715       ForceField.Type=Se3+2 ForceField.Charge=0.0
     23     Se     0.07200789     0.45061078     7.87178438       ForceField.Type=Se3+2 ForceField.Charge=0.0
     24     Se     0.37990622    -2.82219587     5.62674557       ForceField.Type=Se3+2 ForceField.Charge=0.0
     25     Se    -1.89298442     6.06863939     2.24788802       ForceField.Type=Se3+2 ForceField.Charge=0.0
     26     Se    -0.33288339     6.91160784     1.25100014       ForceField.Type=Se3+2 ForceField.Charge=0.0
     27     Se    -3.96289525     8.09181885    -0.96226550       ForceField.Type=Se3+2 ForceField.Charge=0.0
     28     Se    -5.72023885     4.57462925     0.11106752       ForceField.Type=Se3+2 ForceField.Charge=0.0
     29     Se    -3.22057278     8.50850692     3.09764755       ForceField.Type=Se3+2 ForceField.Charge=0.0
     30     Se    -5.66985469     5.49999925     1.91803562       ForceField.Type=Se3+2 ForceField.Charge=0.0
     31     Se     2.02377501     3.60777456     6.72746026       ForceField.Type=Se3+2 ForceField.Charge=0.0
     32     Se    -3.70162026     4.06861597     4.94422880       ForceField.Type=Se3+2 ForceField.Charge=0.0
     33     Se    -1.67083429     7.38401452     3.78446039       ForceField.Type=Se3+2 ForceField.Charge=0.0
     34     Se    -4.41941586     7.84014881     4.59928395       ForceField.Type=Se3+2 ForceField.Charge=0.0
     35     Se    -2.18824712     6.64212930     7.87950429       ForceField.Type=Se3+2 ForceField.Charge=0.0
     36     Se    -1.89311021     3.39603263     5.58758498       ForceField.Type=Se3+2 ForceField.Charge=0.0
     37     Se     6.99117267    -0.12710241     2.27285691       ForceField.Type=Se3+2 ForceField.Charge=0.0
     38     Se     8.55588467     0.72224877     1.28935234       ForceField.Type=Se3+2 ForceField.Charge=0.0
     39     Se     5.09881220     1.74393885    -0.86685476       ForceField.Type=Se3+2 ForceField.Charge=0.0
     40     Se     3.15996468    -1.69691440     0.15656388       ForceField.Type=Se3+2 ForceField.Charge=0.0
     41     Se     5.67068261     2.31655723     3.12180352       ForceField.Type=Se3+2 ForceField.Charge=0.0
     42     Se     3.21555538    -0.70597705     1.92817763       ForceField.Type=Se3+2 ForceField.Charge=0.0
     43     Se    10.90804637    -2.59353955     6.72031357       ForceField.Type=Se3+2 ForceField.Charge=0.0
     44     Se     5.16980384    -2.12504211     4.95772765       ForceField.Type=Se3+2 ForceField.Charge=0.0
     45     Se     7.20687470     1.17901827     3.81781596       ForceField.Type=Se3+2 ForceField.Charge=0.0
     46     Se     4.45309653     1.64539444     4.60670279       ForceField.Type=Se3+2 ForceField.Charge=0.0
     47     Se     6.69847731     0.43575841     7.89827473       ForceField.Type=Se3+2 ForceField.Charge=0.0
     48     Se     6.96213044    -2.82311637     5.61880066       ForceField.Type=Se3+2 ForceField.Charge=0.0
     49     At     1.64674400     0.57130907    -3.13810519       ForceField.Type=At ForceField.Charge=0.0
 
Lattice vectors (angstrom)
      1    13.20634020     0.00000000     0.00000000
      2    -4.54518103    12.39954640     0.00000000
 
Unit cell area (angstrom^2)       163.75263
 
Total System Charge             0.00000
Bonding info available!
 
Performing a single point calculation on the final geometry ...

-----------------------
Assumed Input Structure
-----------------------
Atoms [Angstrom]
      Se       4.7104320683    6.0746029371    2.2520069132       Se3+2   0.000000000000
      Se       6.2603776746    6.9401529568    1.2591053492       Se3+2   0.000000000000
      Se       2.7326725282    7.9352883218   -0.9630059882       Se3+2   0.000000000000
      Se       0.8292136501    4.5081362538    0.1122544187       Se3+2   0.000000000000
      Se       3.3487222976    8.4994923876    3.0891117130       Se3+2   0.000000000000
      Se       0.9255849481    5.4541996190    1.9072356353       Se3+2   0.000000000000
      Se       8.6540356424    3.6040889567    6.7296050013       Se3+2   0.000000000000
      Se       2.9232587866    4.0844387959    4.9695837325       Se3+2   0.000000000000
      Se       4.9097886084    7.3967297662    3.7857614270       Se3+2   0.000000000000
      Se       2.1578654279    7.8354032194    4.5987141498       Se3+2   0.000000000000
      Se       4.3889451938    6.6602928877    7.8900888656       Se3+2   0.000000000000
      Se       4.7056267126    3.3755873702    5.6460586421       Se3+2   0.000000000000
      Se       0.3862433312   -0.1354708571    2.2458293387       Se3+2   0.000000000000
      Se       1.9315618731    0.7068074131    1.2258366941       Se3+2   0.000000000000
      Se      -1.6684928146    1.7464233491   -0.9325825015       Se3+2   0.000000000000
      Se      -3.4965963530   -1.6683715598    0.1179457620       Se3+2   0.000000000000
      Se      -0.9788867529    2.2967150511    3.0599845687       Se3+2   0.000000000000
      Se      -3.4003323456   -0.7500857620    1.9270725048       Se3+2   0.000000000000
      Se       4.2945910843   -2.5807338044    6.7332568486       Se3+2   0.000000000000
      Se      -1.4079834901   -2.1211495608    4.9565652858       Se3+2   0.000000000000
      Se       0.5977978964    1.2147347092    3.7535691712       Se3+2   0.000000000000
      Se      -2.1482076054    1.6413055804    4.5901171546       Se3+2   0.000000000000
      Se       0.0720078915    0.4506107769    7.8717843799       Se3+2   0.000000000000
      Se       0.3799062226   -2.8221958674    5.6267455730       Se3+2   0.000000000000
      Se      -1.8929844229    6.0686393932    2.2478880154       Se3+2   0.000000000000
      Se      -0.3328833858    6.9116078405    1.2510001353       Se3+2   0.000000000000
      Se      -3.9628952462    8.0918188491   -0.9622654975       Se3+2   0.000000000000
      Se      -5.7202388530    4.5746292470    0.1110675214       Se3+2   0.000000000000
      Se      -3.2205727762    8.5085069241    3.0976475539       Se3+2   0.000000000000
      Se      -5.6698546907    5.4999992459    1.9180356159       Se3+2   0.000000000000
      Se       2.0237750081    3.6077745642    6.7274602608       Se3+2   0.000000000000
      Se      -3.7016202604    4.0686159719    4.9442288024       Se3+2   0.000000000000
      Se      -1.6708342882    7.3840145151    3.7844603913       Se3+2   0.000000000000
      Se      -4.4194158606    7.8401488128    4.5992839468       Se3+2   0.000000000000
      Se      -2.1882471235    6.6421292950    7.8795042865       Se3+2   0.000000000000
      Se      -1.8931102096    3.3960326287    5.5875849792       Se3+2   0.000000000000
      Se       6.9911726710   -0.1271024096    2.2728569124       Se3+2   0.000000000000
      Se       8.5558846742    0.7222487669    1.2893523398       Se3+2   0.000000000000
      Se       5.0988121956    1.7439388490   -0.8668547620       Se3+2   0.000000000000
      Se       3.1599646776   -1.6969144039    0.1565638789       Se3+2   0.000000000000
      Se       5.6706826084    2.3165572266    3.1218035194       Se3+2   0.000000000000
      Se       3.2155553763   -0.7059770450    1.9281776338       Se3+2   0.000000000000
      Se      10.9080463748   -2.5935395548    6.7203135720       Se3+2   0.000000000000
      Se       5.1698038402   -2.1250421077    4.9577276486       Se3+2   0.000000000000
      Se       7.2068746969    1.1790182747    3.8178159602       Se3+2   0.000000000000
      Se       4.4530965293    1.6453944373    4.6067027940       Se3+2   0.000000000000
      Se       6.6984773128    0.4357584132    7.8982747327       Se3+2   0.000000000000
      Se       6.9621304403   -2.8231163651    5.6188006563       Se3+2   0.000000000000
      At       1.6467439965    0.5713090729   -3.1381051910          At   0.000000000000
End

Bonds
    1      2    3.000000000000
    1      9    3.000000000000
    2     30    3.000000000000
    4      6    3.000000000000
    5      9    3.000000000000
    5     10    3.000000000000
    6     26    3.000000000000
    7     32    3.000000000000
    8     12    3.000000000000
    8     31    3.000000000000
   10     48    3.000000000000
   12     46    3.000000000000
   13     14    3.000000000000
   13     21    3.000000000000
   14     42    3.000000000000
   16     18    3.000000000000
   17     21    3.000000000000
   17     22    3.000000000000
   18     38    3.000000000000
   19     44    3.000000000000
   20     24    3.000000000000
   20     43    3.000000000000
   22     36    3.000000000000
   24     34    3.000000000000
   25     26    3.000000000000
   25     33    3.000000000000
   28     30    3.000000000000
   29     33    3.000000000000
   29     34    3.000000000000
   32     36    3.000000000000
   37     38    3.000000000000
   37     45    3.000000000000
   40     42    3.000000000000
   41     45    3.000000000000
   41     46    3.000000000000
   44     48    3.000000000000
End

Lattice [Angstrom]
  13.20634   0.00000   0.00000
  -4.54518  12.39955   0.00000
End

Scanning modes in range provided by user.
Scanning Mode: 4
Old/New Frequency [cm-1]:     0.474387/    0.475667

Scanning Mode: 5
Old/New Frequency [cm-1]:     3.207323/    3.209537

Scanning Mode: 6
Old/New Frequency [cm-1]:     3.953697/    3.956442

Scanning Mode: 7
Old/New Frequency [cm-1]:     5.711620/    5.714549

Scanning Mode: 8
Old/New Frequency [cm-1]:     6.684912/    6.688241

Scanning Mode: 9
Old/New Frequency [cm-1]:     8.576777/    8.581084

Scanning Mode: 10
Old/New Frequency [cm-1]:     8.743971/    8.748254

Scanning Mode: 11
Old/New Frequency [cm-1]:     9.319145/    9.323747

Scanning Mode: 12
Old/New Frequency [cm-1]:     9.830918/    9.835976



    =====================
     CALCULATION RESULTS
    =====================

Energy (hartree)            -0.14127606

Gradients (hartree/bohr)
  Index   Atom            d/dx            d/dy            d/dz
      1     Se    0.0000077073   -0.0000083264   -0.0000225769
      2     Se    0.0000098070    0.0000040971   -0.0000086578
      3     Se   -0.0000443888    0.0001091816    0.0000612038
      4     Se   -0.0000016642   -0.0000218966    0.0000239813
      5     Se   -0.0000021685   -0.0000062862   -0.0000108628
      6     Se    0.0000061454    0.0000195736   -0.0000031013
      7     Se   -0.0000110246   -0.0000433728   -0.0000011684
      8     Se   -0.0000019411   -0.0000066050    0.0000151938
      9     Se   -0.0000002281   -0.0000113146   -0.0000070441
     10     Se   -0.0000124349   -0.0000144253   -0.0000164164
     11     Se    0.0000267777   -0.0000029985   -0.0000090867
     12     Se    0.0000022023   -0.0000296452   -0.0000078738
     13     Se   -0.0000154413   -0.0000202702    0.0000021460
     14     Se   -0.0000381349   -0.0000208201   -0.0000349074
     15     Se    0.0001743981   -0.0002709954   -0.0000383375
     16     Se    0.0000198336    0.0000147046   -0.0000264775
     17     Se   -0.0000014859    0.0000100255   -0.0000153209
     18     Se    0.0000254688    0.0000165574   -0.0000305975
     19     Se   -0.0000159195    0.0000266502   -0.0000090447
     20     Se    0.0000130740    0.0000086620    0.0000128229
     21     Se    0.0000015299    0.0000062295   -0.0000084896
     22     Se   -0.0000102433    0.0000107216   -0.0000140815
     23     Se    0.0000301727   -0.0000139999   -0.0000124653
     24     Se   -0.0000000882   -0.0000158476    0.0000382682
     25     Se   -0.0000031092   -0.0000060555   -0.0000003148
     26     Se   -0.0000124789   -0.0000076040   -0.0000178266
     27     Se   -0.0000424373    0.0000524127    0.0000574950
     28     Se    0.0000135963    0.0000093212    0.0000038503
     29     Se    0.0000114928    0.0000080583    0.0000239654
     30     Se    0.0000146880    0.0000168160   -0.0000049562
     31     Se    0.0000060026   -0.0000502196    0.0000113635
     32     Se   -0.0000109086    0.0000136917    0.0000156278
     33     Se    0.0000155187   -0.0000058948    0.0000104245
     34     Se    0.0000062831   -0.0000029167    0.0000220626
     35     Se   -0.0000032020   -0.0000141107   -0.0000084418
     36     Se   -0.0000056218    0.0000039393   -0.0000050148
     37     Se    0.0000244513    0.0000188994   -0.0000384099
     38     Se    0.0000342083    0.0000208858   -0.0000250490
     39     Se   -0.0000069328    0.0001364094    0.0001262228
     40     Se   -0.0000396182   -0.0000187415   -0.0000310050
     41     Se   -0.0000032935    0.0000133713   -0.0000302096
     42     Se   -0.0000118842    0.0000063505   -0.0000459478
     43     Se   -0.0000252290   -0.0000116820   -0.0000076716
     44     Se    0.0000010754   -0.0000011541   -0.0000121881
     45     Se    0.0000108733    0.0000228052   -0.0000251016
     46     Se   -0.0000084816   -0.0000063043   -0.0000367937
     47     Se    0.0000158369   -0.0000280081    0.0000184069
     48     Se   -0.0000107018   -0.0000307728    0.0000022314
     49     At   -0.0001320810    0.0001209038    0.0001201748

 -----------------------
 Normal Mode Frequencies
 -----------------------

 Index   Frequency (cm-1)   Red. mass (u)  F const (Ha/Bohr^2)
     4             0.4757        103.0018             0.000001
     5             3.2095        113.0174             0.000044
     6             3.9564         94.6726             0.000056
     7             5.7145        100.4576             0.000124
     8             6.6882         81.3229             0.000138
     9             8.5811         80.2125             0.000224
    10             8.7483         81.0508             0.000235
    11             9.3237         81.1823             0.000267
    12             9.8360         80.9725             0.000296
    13            10.2040         80.6091             0.000318
    14            11.6815        106.2821             0.000549
    15            12.9846         81.1062             0.000517
    16            13.8831         86.0163             0.000627
    17            14.5621         80.7343             0.000648
    18            15.0918         80.9257             0.000698
    19            15.1599         80.2763             0.000698
    20            15.6311         80.2949             0.000742
    21            16.5224         80.6366             0.000833
    22            16.7432         88.7855             0.000942
    23            17.5123         81.0601             0.000941
    24            17.9434         84.9043             0.001035
    25            18.7482         80.8472             0.001075
    26            19.6913         80.0015             0.001174
    27            20.3893         80.6152             0.001268
    28            20.9324         85.1059             0.001411
    29            21.9363         80.2050             0.001461
    30            22.6228         83.8317             0.001624
    31            23.0855         80.3997             0.001622
    32            24.1121         80.5774             0.001773
    33            24.1274         80.6882             0.001778
    34            24.7793         80.4572             0.001870
    35            25.6411         80.1000             0.001993
    36            26.5256         80.2625             0.002137
    37            26.9883         80.0091             0.002205
    38            27.2951         79.9927             0.002255
    39            27.6763         80.6867             0.002339
    40            28.6065         80.5501             0.002495
    41            29.0621         80.8065             0.002583
    42            29.9487         80.0977             0.002719
    43            30.0794         80.7932             0.002766
    44            30.7552         80.0619             0.002866
    45            31.4074         80.2543             0.002996
    46            32.3359         81.5541             0.003227
    47            34.7610         80.0240             0.003659
    48            35.0782         80.0978             0.003730
    49            36.7283         80.0585             0.004087
    50            37.5928         79.9205             0.004274
    51            37.8638         79.9767             0.004339
    52            38.1084         80.1832             0.004407
    53            38.7359         79.9591             0.004540
    54            39.1470         80.0577             0.004643
    55            40.2323         80.0568             0.004904
    56            41.7022         80.2607             0.005282
    57            42.2495         79.9555             0.005401
    58            43.4506         79.9299             0.005711
    59            44.0644         79.9254             0.005873
    60            44.4061         79.9896             0.005969
    61            45.1056         79.9499             0.006156
    62            45.3884         79.9374             0.006232
    63            45.5496         79.9700             0.006279
    64            46.6613         79.9357             0.006586
    65            47.3053         79.9213             0.006768
    66            48.2239         79.9280             0.007034
    67            48.9909         79.9402             0.007261
    68            49.5366         79.9339             0.007423
    69            50.1805         79.9187             0.007616
    70            50.9731         80.0558             0.007872
    71            51.9062         79.9192             0.008149
    72            52.0735         79.9252             0.008202
    73            52.4567         79.9190             0.008322
    74            52.6091         79.9961             0.008379
    75            52.8808         79.9744             0.008463
    76            54.5281         79.9290             0.008994
    77            54.8084         79.9195             0.009085
    78            54.9896         79.9194             0.009145
    79            55.2306         79.9251             0.009226
    80            77.4292         79.9166             0.018132
    81            79.0087         79.9167             0.018879
    82            79.1881         79.9168             0.018965
    83            80.4260         79.9170             0.019562
    84           135.2222         79.9165             0.055300
    85           135.4488         79.9165             0.055485
    86           135.6556         79.9166             0.055655
    87           135.7482         79.9166             0.055731
    88           150.4410         79.9165             0.068448
    89           150.5217         79.9165             0.068521
    90           150.5636         79.9165             0.068560
    91           150.6909         79.9166             0.068676
    92           176.1858         79.9165             0.093879
    93           176.2966         79.9166             0.093998
    94           176.4182         79.9166             0.094127
    95           177.4562         79.9166             0.095238
    96           196.8621         79.9165             0.117207
    97           197.9720         79.9165             0.118532
    98           198.1398         79.9165             0.118733
    99           199.3046         79.9165             0.120133
   100           208.8553         79.9166             0.131923
   101           209.8499         79.9166             0.133182
   102           209.8905         79.9165             0.133234
   103           210.1041         79.9166             0.133505
   104           230.4247         79.9165             0.160578
   105           231.5613         79.9165             0.162166
   106           231.6307         79.9165             0.162263
   107           232.8361         79.9165             0.163957
   108           234.2827         79.9165             0.166000
   109           234.6373         79.9165             0.166503
   110           234.7062         79.9165             0.166601
   111           235.2142         79.9165             0.167323
   112           426.1611         79.9165             0.549258
   113           426.3804         79.9165             0.549823
   114           426.4025         79.9165             0.549880
   115           426.6068         79.9165             0.550407
   116           426.9184         79.9165             0.551211
   117           427.3686         79.9165             0.552374
   118           427.4470         79.9165             0.552577
   119           427.7327         79.9165             0.553316
   120           428.5366         79.9165             0.555398
   121           428.8789         79.9165             0.556285
   122           428.9777         79.9165             0.556542
   123           429.3711         79.9165             0.557563
   124           429.8322         79.9165             0.558761
   125           430.0657         79.9165             0.559369
   126           430.0803         79.9165             0.559406
   127           430.3330         79.9165             0.560064
   128           433.9899         79.9165             0.569623
   129           434.3502         79.9165             0.570569
   130           434.4010         79.9165             0.570703
   131           435.3989         79.9165             0.573328
   132           440.8139         79.9165             0.587677
   133           441.0327         79.9165             0.588261
   134           441.4144         79.9165             0.589280
   135           441.4273         79.9165             0.589314
   136           447.7639         79.9165             0.606354
   137           447.8824         79.9165             0.606675
   138           448.2071         79.9165             0.607555
   139           448.5730         79.9165             0.608548
   140           451.9150         79.9165             0.617649
   141           452.1142         79.9165             0.618194
   142           452.4357         79.9165             0.619073
   143           452.4682         79.9165             0.619162
   144           457.2207         79.9165             0.632237
   145           457.5367         79.9165             0.633112
   146           457.5552         79.9165             0.633163
   147           457.9905         79.9165             0.634368

 ------------
 Normal Modes
 ------------

 Number of removed rigid normal modes: 3
 
 Mode:     4      Frequency (cm-1):        0.4757
 Index  Atom      ---- Displacements (x/y/z) ----
     1    Se       0.005209  -0.016592  -0.003498
     2    Se      -0.018432  -0.046809  -0.068117
     3    Se      -0.052409   0.071521  -0.010234
     4    Se       0.008805   0.026883  -0.017019
     5    Se      -0.041063  -0.021268  -0.067884
     6    Se       0.003512  -0.046255   0.021821
     7    Se      -0.014447  -0.001867   0.021793
     8    Se       0.022212   0.007671   0.016667
     9    Se       0.012120   0.055285  -0.066403
    10    Se       0.019324  -0.000736  -0.011092
    11    Se      -0.034125   0.004825  -0.028383
    12    Se      -0.010377  -0.054659   0.036725
    13    Se      -0.024451   0.012930   0.006499
    14    Se      -0.059467   0.022663  -0.038857
    15    Se      -0.094420   0.101309   0.019145
    16    Se       0.025630   0.006913   0.026013
    17    Se      -0.041038   0.003118  -0.000725
    18    Se      -0.005732  -0.036804   0.049850
    19    Se       0.019450  -0.005454  -0.011901
    20    Se       0.044798   0.011367   0.034487
    21    Se      -0.012356   0.035171  -0.015831
    22    Se      -0.006804   0.000753   0.024416
    23    Se      -0.013189  -0.003988   0.008304
    24    Se       0.011081  -0.051431   0.058381
    25    Se       0.009464  -0.009323   0.007983
    26    Se       0.038684   0.002401   0.063112
    27    Se       0.427252  -0.628432  -0.026278
    28    Se      -0.048457  -0.124854   0.055339
    29    Se       0.050360  -0.001249   0.051745
    30    Se       0.007064   0.001486  -0.010729
    31    Se      -0.026181  -0.008776  -0.012572
    32    Se      -0.038992  -0.017220   0.006158
    33    Se       0.002739  -0.064809   0.056161
    34    Se      -0.005564  -0.015015   0.000930
    35    Se       0.019345  -0.011738   0.025282
    36    Se      -0.023205   0.017694  -0.001465
    37    Se      -0.005995  -0.014113   0.008965
    38    Se       0.021795  -0.011095   0.056287
    39    Se       0.104079  -0.195634  -0.027358
    40    Se      -0.146268  -0.006399  -0.068070
    41    Se       0.010380  -0.011988   0.026823
    42    Se      -0.033354   0.022581  -0.087082
    43    Se      -0.010000  -0.015042  -0.000304
    44    Se      -0.047953  -0.035988  -0.053076
    45    Se      -0.020500  -0.046735   0.038349
    46    Se      -0.031174  -0.022661  -0.012087
    47    Se       0.012564  -0.029250   0.004441
    48    Se      -0.005526   0.044650  -0.082159
    49    At      -0.001669   0.421260  -0.001733
 
 Mode:     5      Frequency (cm-1):        3.2095
 Index  Atom      ---- Displacements (x/y/z) ----
     1    Se       0.004106  -0.028394   0.003705
     2    Se       0.069965  -0.009977   0.123646
     3    Se       0.110135  -0.156568   0.007921
     4    Se      -0.019194  -0.058038  -0.027006
     5    Se       0.071556  -0.021990   0.095557
     6    Se       0.002085   0.045876  -0.082883
     7    Se      -0.027282  -0.085252  -0.025213
     8    Se      -0.074149  -0.070566  -0.057373
     9    Se      -0.011479  -0.137223   0.099547
    10    Se      -0.026916  -0.056770   0.002470
    11    Se       0.108116  -0.071494   0.000862
    12    Se      -0.032577   0.018170  -0.073760
    13    Se       0.016804  -0.004549  -0.057672
    14    Se       0.100519   0.008872   0.079603
    15    Se      -0.061271  -0.010533   0.041888
    16    Se      -0.028661  -0.057866  -0.001688
    17    Se       0.097108   0.000613   0.062175
    18    Se       0.000027   0.014746  -0.040179
    19    Se      -0.048448  -0.081488   0.003478
    20    Se      -0.056154  -0.053969  -0.079832
    21    Se       0.007954  -0.132004   0.057806
    22    Se      -0.005052  -0.042441  -0.034568
    23    Se       0.094814  -0.071826  -0.013105
    24    Se      -0.008867   0.036517  -0.111579
    25    Se      -0.009626  -0.039016  -0.027920
    26    Se      -0.072142  -0.036261  -0.123745
    27    Se      -0.295159   0.372507   0.005851
    28    Se       0.067517   0.064573  -0.027003
    29    Se      -0.070674  -0.047653  -0.098532
    30    Se      -0.004649  -0.104238   0.061150
    31    Se      -0.004500  -0.001742  -0.003227
    32    Se       0.071028  -0.006348   0.042005
    33    Se      -0.002225   0.045408  -0.101079
    34    Se       0.011257  -0.019879  -0.020827
    35    Se      -0.139298  -0.012991  -0.010015
    36    Se       0.017181  -0.112238   0.082239
    37    Se      -0.007066  -0.061099   0.032855
    38    Se      -0.068682  -0.050573  -0.055535
    39    Se       0.082147   0.037819   0.033626
    40    Se       0.054723   0.051147  -0.064709
    41    Se      -0.069307  -0.066395  -0.050290
    42    Se       0.006980  -0.103992   0.023787
    43    Se       0.022784  -0.002804  -0.026205
    44    Se       0.046525  -0.020582   0.065975
    45    Se      -0.009215   0.022406  -0.037532
    46    Se      -0.005533  -0.038589   0.014392
    47    Se      -0.123540  -0.013599   0.010398
    48    Se      -0.008388  -0.121474   0.108224
    49    At       0.086280   0.491588   0.073187
 
 Mode:     6      Frequency (cm-1):        3.9564
 Index  Atom      ---- Displacements (x/y/z) ----
     1    Se      -0.043801  -0.037379   0.033007
     2    Se      -0.132255  -0.009663  -0.079517
     3    Se      -0.042573  -0.018008  -0.040889
     4    Se      -0.073922   0.011609  -0.009171
     5    Se      -0.138910  -0.056423  -0.067132
     6    Se      -0.048800  -0.086849   0.041884
     7    Se       0.032735   0.058458  -0.008194
     8    Se       0.059345  -0.001150   0.070928
     9    Se      -0.056279   0.067643  -0.055786
    10    Se      -0.044055  -0.008144   0.028815
    11    Se      -0.214544   0.021445   0.033869
    12    Se       0.013789  -0.085796   0.102713
    13    Se       0.000684  -0.040949   0.017799
    14    Se      -0.083167  -0.025018  -0.096470
    15    Se       0.150956  -0.260884  -0.071305
    16    Se      -0.017087  -0.035372   0.024104
    17    Se      -0.087290  -0.055136  -0.085048
    18    Se      -0.001395  -0.124034   0.068575
    19    Se      -0.008419   0.081154   0.008138
    20    Se       0.041583   0.018585   0.095121
    21    Se      -0.008892   0.064642  -0.075444
    22    Se       0.004394  -0.004487   0.006549
    23    Se      -0.225917   0.035866   0.048863
    24    Se      -0.012052  -0.083421   0.131532
    25    Se      -0.029899   0.034823  -0.012680
    26    Se       0.046929   0.020447   0.095349
    27    Se      -0.256875   0.293626   0.073937
    28    Se       0.004560   0.021467   0.004663
    29    Se       0.068728   0.047161   0.104943
    30    Se      -0.023331   0.106319  -0.038479
    31    Se      -0.029679  -0.098951  -0.000945
    32    Se      -0.059259  -0.031609  -0.075358
    33    Se      -0.013802  -0.079589   0.082918
    34    Se      -0.023695  -0.007901   0.006937
    35    Se       0.196733  -0.054682  -0.022267
    36    Se      -0.011147   0.064254  -0.110283
    37    Se       0.019212   0.009203  -0.001939
    38    Se       0.103473  -0.017554   0.107739
    39    Se       0.067908  -0.011390   0.086379
    40    Se       0.015210  -0.010754  -0.014616
    41    Se       0.113441   0.028623   0.090944
    42    Se       0.015372   0.080317  -0.065729
    43    Se      -0.059020  -0.080464   0.017992
    44    Se      -0.093090  -0.023896  -0.060354
    45    Se       0.026818  -0.093065   0.083456
    46    Se       0.012776  -0.016682  -0.011915
    47    Se       0.184237  -0.045416  -0.010606
    48    Se      -0.050722   0.060502  -0.086305
    49    At       0.270573   0.144048  -0.139557
 
 Mode:     7      Frequency (cm-1):        5.7145
 Index  Atom      ---- Displacements (x/y/z) ----
     1    Se      -0.012684   0.047783   0.003703
     2    Se       0.051915   0.028040   0.086339
     3    Se       0.070954  -0.225114  -0.025402
     4    Se      -0.137860  -0.048360   0.020935
     5    Se       0.020545   0.050014   0.047648
     6    Se      -0.036155   0.060251  -0.041333
     7    Se      -0.013515  -0.017075   0.058099
     8    Se      -0.071883   0.021763  -0.041998
     9    Se      -0.023764  -0.008788   0.053578
    10    Se      -0.034339   0.031173  -0.003959
    11    Se       0.058841   0.020650  -0.000386
    12    Se      -0.027249   0.100241  -0.077219
    13    Se      -0.026598   0.022429   0.031909
    14    Se      -0.011660   0.022483   0.053937
    15    Se       0.285703  -0.460985  -0.027272
    16    Se      -0.118505  -0.081302   0.053777
    17    Se       0.008181   0.031927   0.064827
    18    Se      -0.030392   0.062925  -0.023659
    19    Se      -0.042553   0.011784  -0.002145
    20    Se      -0.074272   0.005999  -0.014323
    21    Se      -0.017435  -0.009799   0.059118
    22    Se      -0.023946   0.011457   0.031751
    23    Se       0.114356   0.008324   0.005011
    24    Se      -0.031790   0.088456  -0.041218
    25    Se      -0.035427   0.005987   0.056193
    26    Se      -0.099621   0.002179  -0.047963
    27    Se       0.208992  -0.298502  -0.032820
    28    Se      -0.012963   0.003470   0.067287
    29    Se      -0.087503   0.004959  -0.026044
    30    Se      -0.020170  -0.035308   0.087508
    31    Se       0.007556   0.076709   0.013488
    32    Se       0.020782   0.033264   0.087459
    33    Se      -0.022828   0.095666  -0.023078
    34    Se      -0.013768   0.034249   0.046030
    35    Se      -0.093544   0.056902   0.024881
    36    Se      -0.000400  -0.023378   0.087826
    37    Se      -0.032536   0.026971   0.013639
    38    Se      -0.074174   0.004120  -0.073741
    39    Se      -0.033685   0.037749   0.012352
    40    Se      -0.074566   0.015072   0.004815
    41    Se      -0.095343   0.019310  -0.068538
    42    Se      -0.035647  -0.015479   0.020841
    43    Se      -0.000148   0.068477   0.039698
    44    Se       0.014995   0.056765   0.037648
    45    Se      -0.024769   0.117412  -0.064356
    46    Se      -0.017226   0.047292   0.008047
    47    Se      -0.165904   0.071465   0.007698
    48    Se      -0.018068  -0.007846   0.059188
    49    At       0.315887  -0.065372  -0.232053
 
 Mode:     8      Frequency (cm-1):        6.6882
 Index  Atom      ---- Displacements (x/y/z) ----
     1    Se      -0.062402   0.039328  -0.002635
     2    Se      -0.065426   0.029079  -0.015199
     3    Se      -0.381375   0.507962   0.106511
     4    Se      -0.005480   0.073517  -0.013763
     5    Se      -0.040141   0.038157   0.032216
     6    Se      -0.045636   0.059667  -0.004575
     7    Se       0.016638  -0.066582  -0.018268
     8    Se       0.017375  -0.005592  -0.061666
     9    Se      -0.034029   0.029011   0.002730
    10    Se      -0.030966   0.008623   0.026725
    11    Se       0.148472  -0.046760  -0.047765
    12    Se       0.026387   0.011885  -0.067696
    13    Se       0.050900   0.000488  -0.012763
    14    Se       0.079850  -0.021463   0.011362
    15    Se       0.095906  -0.032685   0.010111
    16    Se       0.140836  -0.000200   0.023405
    17    Se       0.069238   0.007050   0.000406
    18    Se       0.066381  -0.018507   0.036072
    19    Se      -0.047837  -0.039642   0.033061
    20    Se      -0.014570   0.023011   0.021394
    21    Se       0.054985  -0.014241  -0.000176
    22    Se       0.053410  -0.000038  -0.014732
    23    Se       0.139921  -0.007240  -0.032100
    24    Se      -0.033150  -0.016856   0.027951
    25    Se      -0.057597  -0.005839   0.018221
    26    Se      -0.087060   0.025552   0.000532
    27    Se      -0.102296   0.058907   0.003379
    28    Se      -0.135639  -0.006614  -0.016227
    29    Se      -0.070015  -0.011318   0.013708
    30    Se      -0.069762   0.017853  -0.030126
    31    Se       0.040864   0.036807  -0.038326
    32    Se       0.013320  -0.027385  -0.009944
    33    Se      -0.062699  -0.000647   0.014622
    34    Se      -0.063133  -0.008284   0.020607
    35    Se      -0.129783  -0.004374   0.038242
    36    Se       0.025326   0.002019  -0.011595
    37    Se       0.057294  -0.040060  -0.001065
    38    Se       0.062334  -0.032894   0.012146
    39    Se       0.282420  -0.392142  -0.125939
    40    Se       0.008160  -0.055108   0.001383
    41    Se       0.027202  -0.039287  -0.045380
    42    Se       0.039990  -0.061744   0.004220
    43    Se      -0.027445   0.060217   0.024533
    44    Se      -0.030689   0.005024   0.052770
    45    Se       0.024669  -0.022730  -0.011347
    46    Se       0.021679  -0.006706  -0.035408
    47    Se      -0.186357   0.053159   0.041632
    48    Se      -0.035479  -0.006521   0.054032
    49    At       0.097195  -0.036479  -0.005814
 
 Mode:     9      Frequency (cm-1):        8.5811
 Index  Atom      ---- Displacements (x/y/z) ----
     1    Se       0.001286   0.039853  -0.049550
     2    Se       0.041272   0.032716   0.006860
     3    Se      -0.173266   0.246513   0.034232
     4    Se       0.049013  -0.015275  -0.045764
     5    Se      -0.004320   0.033568  -0.039090
     6    Se       0.024465  -0.047112  -0.028075
     7    Se       0.025761  -0.082833   0.042018
     8    Se      -0.032456   0.049447  -0.041466
     9    Se      -0.022973   0.015895  -0.025303
    10    Se      -0.025913   0.040657  -0.053630
    11    Se      -0.351382   0.116087   0.060985
    12    Se      -0.040975   0.048364  -0.020708
    13    Se       0.008003  -0.071802   0.024403
    14    Se      -0.025572  -0.044074  -0.002762
    15    Se       0.029052   0.010777   0.027648
    16    Se       0.031647   0.050064   0.016885
    17    Se       0.025733  -0.067843   0.047151
    18    Se      -0.014652   0.024923   0.032002
    19    Se      -0.038619   0.023676  -0.059137
    20    Se       0.044317  -0.085847   0.033621
    21    Se       0.025080  -0.079758   0.029590
    22    Se       0.028876  -0.083271   0.043377
    23    Se       0.375392  -0.176414  -0.064002
    24    Se       0.037595  -0.101032   0.036068
    25    Se       0.020843  -0.081545   0.006631
    26    Se       0.000043  -0.058528  -0.005971
    27    Se       0.033019   0.023832   0.001673
    28    Se       0.086252   0.057951   0.000909
    29    Se       0.044167  -0.074858   0.029100
    30    Se       0.004233   0.008942   0.027964
    31    Se      -0.053096   0.053818  -0.051050
    32    Se       0.041241  -0.075854   0.051029
    33    Se       0.034029  -0.095894   0.017378
    34    Se       0.036082  -0.088309   0.016926
    35    Se       0.271918  -0.131857  -0.034008
    36    Se       0.031844  -0.093596   0.059415
    37    Se      -0.016580   0.050744  -0.027396
    38    Se       0.014551   0.043592   0.016198
    39    Se      -0.205293   0.319104   0.104638
    40    Se       0.037377   0.004330  -0.037675
    41    Se      -0.009594   0.047585  -0.008244
    42    Se       0.013221  -0.019031  -0.024205
    43    Se       0.035267  -0.095100   0.026723
    44    Se      -0.036813   0.032344  -0.055928
    45    Se      -0.029195   0.024600  -0.003089
    46    Se      -0.031278   0.049380  -0.025662
    47    Se      -0.308601   0.083462   0.043625
    48    Se      -0.034259   0.042098  -0.053233
    49    At       0.001240   0.036347  -0.030864
 
 Mode:    10      Frequency (cm-1):        8.7483
 Index  Atom      ---- Displacements (x/y/z) ----
     1    Se      -0.039559   0.027282   0.088017
     2    Se      -0.071684   0.011252   0.024837
     3    Se       0.259127  -0.333850  -0.072719
     4    Se      -0.020124  -0.050195   0.002154
     5    Se      -0.080676   0.027836   0.011870
     6    Se       0.008012   0.006714  -0.028970
     7    Se       0.061035   0.031473  -0.011830
     8    Se      -0.061392   0.044691   0.002512
     9    Se      -0.038900   0.096063   0.027556
    10    Se      -0.038252   0.058422   0.059086
    11    Se      -0.142631   0.116438   0.041900
    12    Se      -0.041425   0.081688  -0.011370
    13    Se       0.020251  -0.002418  -0.035139
    14    Se       0.016973  -0.016494  -0.053176
    15    Se      -0.087284  -0.007824  -0.012234
    16    Se      -0.080616  -0.022818   0.061910
    17    Se       0.013836  -0.005687  -0.040239
    18    Se      -0.025369  -0.002119   0.048792
    19    Se      -0.018883   0.111122   0.054087
    20    Se       0.062422   0.008072   0.015833
    21    Se       0.030444   0.012704  -0.050369
    22    Se       0.037668  -0.001513  -0.020015
    23    Se       0.263759  -0.059878  -0.082471
    24    Se       0.056692  -0.023158  -0.001319
    25    Se       0.005835   0.006405  -0.045505
    26    Se       0.006370  -0.007703  -0.057910
    27    Se      -0.117815   0.011050   0.000218
    28    Se      -0.160470  -0.044743   0.049207
    29    Se       0.009885   0.002452  -0.029546
    30    Se      -0.050220   0.024437   0.011228
    31    Se      -0.021821   0.092534   0.035296
    32    Se       0.048580   0.006423  -0.024328
    33    Se       0.023350   0.009032  -0.050269
    34    Se       0.029588  -0.008669  -0.018487
    35    Se       0.327276  -0.079457  -0.096863
    36    Se       0.050214   0.002994  -0.032304
    37    Se      -0.014926   0.023227   0.076762
    38    Se      -0.018619   0.007035   0.057751
    39    Se       0.270747  -0.424034  -0.156752
    40    Se      -0.021066  -0.064123   0.006954
    41    Se      -0.055750   0.023564   0.006015
    42    Se       0.021543  -0.000557  -0.029511
    43    Se       0.064914   0.000062   0.015099
    44    Se      -0.069517   0.046919   0.013150
    45    Se      -0.033237   0.071954   0.036959
    46    Se      -0.038517   0.053196   0.033876
    47    Se      -0.123743   0.139133   0.036840
    48    Se      -0.044047   0.096678  -0.003189
    49    At      -0.065447  -0.036386   0.055791
 
 Mode:    11      Frequency (cm-1):        9.3237
 Index  Atom      ---- Displacements (x/y/z) ----
     1    Se       0.014860   0.021757   0.085078
     2    Se       0.022828   0.026299   0.101428
     3    Se      -0.009286   0.020183   0.082067
     4    Se      -0.004292   0.034083   0.061599
     5    Se       0.038738   0.026314   0.104878
     6    Se       0.017639   0.060638   0.046515
     7    Se       0.040874  -0.062469  -0.011489
     8    Se      -0.048690  -0.055652  -0.027121
     9    Se       0.018116  -0.002095   0.104835
    10    Se       0.018048   0.027969   0.089713
    11    Se       0.173793  -0.136011  -0.032858
    12    Se      -0.008598  -0.023945  -0.100322
    13    Se       0.002806  -0.038848  -0.089350
    14    Se       0.032421  -0.031625  -0.039440
    15    Se      -0.006191   0.060542  -0.032426
    16    Se       0.042466  -0.019088  -0.062166
    17    Se       0.042269  -0.026376  -0.053654
    18    Se       0.000449  -0.013001  -0.063399
    19    Se      -0.028925   0.087408  -0.000803
    20    Se       0.000689   0.012019   0.028923
    21    Se      -0.001138  -0.085890  -0.046324
    22    Se      -0.008662  -0.037931  -0.098179
    23    Se      -0.443346   0.160290   0.135389
    24    Se      -0.001322   0.045973   0.071557
    25    Se       0.016534   0.028770   0.083352
    26    Se      -0.010228   0.037768   0.049750
    27    Se       0.017792  -0.045294   0.072414
    28    Se      -0.002770   0.016042   0.092826
    29    Se       0.001787   0.020063   0.081236
    30    Se       0.014518   0.015226   0.092994
    31    Se       0.022762  -0.114464  -0.006114
    32    Se       0.032769  -0.027168  -0.006028
    33    Se       0.026020   0.045798   0.067223
    34    Se       0.032955   0.019517   0.106368
    35    Se       0.428393  -0.181019  -0.100964
    36    Se       0.025778  -0.076880  -0.040261
    37    Se      -0.003551  -0.020539  -0.079948
    38    Se      -0.005454  -0.029281  -0.090201
    39    Se      -0.029598   0.063683  -0.084637
    40    Se       0.028172  -0.004877  -0.101269
    41    Se      -0.032236  -0.023298  -0.110079
    42    Se       0.001026  -0.072107  -0.062949
    43    Se      -0.027013   0.020383   0.017493
    44    Se       0.038340   0.050750   0.023136
    45    Se      -0.012684   0.007460  -0.101798
    46    Se      -0.015609  -0.024322  -0.097677
    47    Se      -0.303304   0.165496   0.051446
    48    Se       0.005212   0.029487   0.091195
    49    At      -0.059046   0.018366  -0.076857
 
 Mode:    12      Frequency (cm-1):        9.8360
 Index  Atom      ---- Displacements (x/y/z) ----
     1    Se       0.015936   0.009780   0.052372
     2    Se      -0.048045   0.007292  -0.048054
     3    Se       0.130240  -0.166664  -0.022200
     4    Se       0.026457   0.000111   0.029636
     5    Se      -0.068869  -0.010483  -0.025754
     6    Se       0.019683  -0.086427   0.075921
     7    Se      -0.013290  -0.102244   0.020907
     8    Se       0.088650   0.040945   0.027806
     9    Se       0.017693   0.108066  -0.032467
    10    Se       0.027139   0.002842   0.055991
    11    Se       0.451665  -0.093601  -0.131435
    12    Se       0.026040  -0.082547   0.061117
    13    Se      -0.021872   0.014551  -0.006188
    14    Se      -0.084134   0.007403  -0.104622
    15    Se      -0.028827   0.026199  -0.040092
    16    Se      -0.009497   0.007612  -0.029640
    17    Se      -0.105681  -0.009389  -0.072765
    18    Se      -0.018180  -0.082900   0.017020
    19    Se      -0.016575  -0.072086   0.014298
    20    Se       0.107165   0.062300   0.008412
    21    Se      -0.016807   0.108648  -0.090715
    22    Se      -0.006030  -0.006472   0.004602
    23    Se       0.256906  -0.016853  -0.085364
    24    Se       0.040058  -0.044151   0.074579
    25    Se       0.025934  -0.008315   0.004577
    26    Se       0.094345  -0.005536   0.112046
    27    Se      -0.075599   0.084089   0.036896
    28    Se       0.012676   0.000959   0.028862
    29    Se       0.113833   0.010976   0.082907
    30    Se       0.020824   0.084039  -0.014209
    31    Se       0.014683   0.070720  -0.002883
    32    Se      -0.095818  -0.059277  -0.008038
    33    Se       0.019493  -0.112173   0.094089
    34    Se       0.010833   0.005980  -0.001353
    35    Se      -0.228737   0.001061   0.095775
    36    Se      -0.038397   0.038742  -0.065237
    37    Se      -0.013391  -0.022535  -0.030318
    38    Se       0.040407  -0.013666   0.061571
    39    Se      -0.089271   0.121119   0.040246
    40    Se      -0.021702   0.003895  -0.024736
    41    Se       0.076735  -0.002136   0.051214
    42    Se      -0.016755   0.085462  -0.070694
    43    Se       0.013187   0.114133  -0.026047
    44    Se      -0.081060  -0.052223  -0.013176
    45    Se      -0.013207  -0.122294   0.054048
    46    Se      -0.021843  -0.016191  -0.035876
    47    Se      -0.406762   0.081191   0.134351
    48    Se      -0.024758   0.066506  -0.037850
    49    At      -0.032529   0.008959  -0.083543
 
 Mode:    13      Frequency (cm-1):       10.2040
 Index  Atom      ---- Displacements (x/y/z) ----
     1    Se      -0.031890  -0.022688   0.014089
     2    Se      -0.036085  -0.032885  -0.000229
     3    Se      -0.147512   0.078585   0.019427
     4    Se      -0.061491  -0.022430   0.025695
     5    Se      -0.052005  -0.030671  -0.000964
     6    Se      -0.046587   0.008039   0.008801
     7    Se       0.005351   0.120416   0.045243
     8    Se      -0.008608  -0.007610  -0.018220
     9    Se      -0.030526  -0.001496  -0.004227
    10    Se      -0.024836  -0.016047   0.027954
    11    Se       0.455931  -0.101762  -0.124928
    12    Se      -0.005518  -0.002160  -0.019764
    13    Se      -0.042045  -0.014008   0.022133
    14    Se      -0.053577  -0.013546   0.006083
    15    Se      -0.027057  -0.053000   0.007263
    16    Se      -0.017142  -0.056315   0.033711
    17    Se      -0.053932  -0.020888   0.016991
    18    Se      -0.030531  -0.003913   0.007701
    19    Se       0.013967   0.129697   0.022494
    20    Se      -0.024658   0.011432   0.000580
    21    Se      -0.038323  -0.002050   0.010744
    22    Se      -0.033389  -0.009310   0.038556
    23    Se       0.349671  -0.049408  -0.070102
    24    Se      -0.023635   0.022953   0.010772
    25    Se      -0.045019  -0.011580   0.041601
    26    Se      -0.069723  -0.015476   0.001149
    27    Se      -0.069154   0.000814   0.004379
    28    Se       0.002014  -0.037590   0.049504
    29    Se      -0.072872  -0.018670   0.012247
    30    Se      -0.028062  -0.009322   0.035705
    31    Se       0.022291   0.103819   0.026935
    32    Se      -0.007291   0.011027   0.011817
    33    Se      -0.038892   0.026120   0.008207
    34    Se      -0.031788  -0.000800   0.054081
    35    Se       0.411075  -0.062824  -0.098877
    36    Se      -0.015017  -0.002271   0.020146
    37    Se      -0.034268  -0.024954   0.001906
    38    Se      -0.050219  -0.038664  -0.034146
    39    Se      -0.122615   0.087110   0.022830
    40    Se      -0.055584  -0.008231  -0.004719
    41    Se      -0.065569  -0.033738  -0.026834
    42    Se      -0.045724  -0.010987  -0.003446
    43    Se      -0.000814   0.134258   0.044505
    44    Se       0.003369   0.007862  -0.013096
    45    Se      -0.027363   0.015071  -0.032724
    46    Se      -0.020953  -0.020851   0.016510
    47    Se       0.458587  -0.097524  -0.114911
    48    Se      -0.006537  -0.004271   0.001727
    49    At      -0.047740   0.038337  -0.039691
 
 Mode:    14      Frequency (cm-1):       11.6815
 Index  Atom      ---- Displacements (x/y/z) ----
     1    Se      -0.013835   0.079583  -0.099333
     2    Se      -0.021304   0.116441  -0.080105
     3    Se      -0.078471  -0.040684  -0.048547
     4    Se      -0.013398  -0.111405   0.043221
     5    Se      -0.028466   0.043179  -0.013673
     6    Se       0.001516  -0.018507  -0.006511
     7    Se      -0.099230   0.027037  -0.092108
     8    Se       0.016667   0.067294  -0.058808
     9    Se      -0.013373   0.034440  -0.060488
    10    Se      -0.002767   0.011451  -0.007340
    11    Se       0.171739  -0.049509  -0.059755
    12    Se      -0.057555  -0.012620   0.052207
    13    Se      -0.022371  -0.038528   0.006235
    14    Se       0.026659  -0.075288   0.052057
    15    Se      -0.076775  -0.006718  -0.113126
    16    Se      -0.148052   0.082235  -0.133982
    17    Se      -0.079307  -0.045283  -0.075221
    18    Se      -0.061122  -0.047999  -0.071980
    19    Se       0.049089  -0.040412   0.083952
    20    Se      -0.021292  -0.033245  -0.041109
    21    Se      -0.073191  -0.000416  -0.020748
    22    Se      -0.089969  -0.022696  -0.073595
    23    Se      -0.077457   0.089331  -0.082951
    24    Se       0.014963   0.036072  -0.063689
    25    Se      -0.000599  -0.055531   0.030927
    26    Se      -0.043301  -0.079290  -0.054674
    27    Se       0.191841  -0.066752  -0.077895
    28    Se      -0.016332   0.149197  -0.143879
    29    Se      -0.056427  -0.057846  -0.051693
    30    Se      -0.013174   0.104777  -0.121300
    31    Se      -0.119041   0.093907  -0.121500
    32    Se      -0.117914  -0.032967  -0.116489
    33    Se       0.009098   0.034947  -0.047892
    34    Se       0.020481  -0.019215   0.027309
    35    Se       0.179377  -0.138081  -0.110520
    36    Se      -0.109636  -0.001130  -0.107330
    37    Se      -0.040143   0.032551  -0.022812
    38    Se      -0.002357   0.057644   0.056868
    39    Se       0.035897   0.053018   0.199786
    40    Se       0.115808  -0.087109   0.175755
    41    Se       0.069891   0.057739   0.075671
    42    Se      -0.009659  -0.054273   0.160597
    43    Se       0.041749   0.024904   0.006108
    44    Se       0.029849   0.018089   0.089529
    45    Se      -0.029639  -0.080072   0.070559
    46    Se      -0.038843   0.032668  -0.024765
    47    Se      -0.105096   0.056971   0.062668
    48    Se       0.033242  -0.020601   0.039236
    49    At       0.255820  -0.025611   0.369571
 
 Mode:    15      Frequency (cm-1):       12.9846
 Index  Atom      ---- Displacements (x/y/z) ----
     1    Se      -0.032293   0.053227   0.019943
     2    Se       0.039925   0.096866   0.168310
     3    Se       0.048342  -0.015323   0.196813
     4    Se       0.132947  -0.057894   0.172778
     5    Se       0.087678   0.069950   0.158227
     6    Se       0.006892  -0.048873   0.174284
     7    Se       0.108511  -0.067785   0.063877
     8    Se       0.085889   0.004910   0.162397
     9    Se      -0.043610  -0.112333   0.163540
    10    Se      -0.066878   0.022864   0.016022
    11    Se      -0.026490   0.021501   0.110618
    12    Se       0.066292  -0.082589   0.122667
    13    Se       0.018949  -0.035647  -0.007238
    14    Se      -0.040937  -0.057862  -0.115034
    15    Se      -0.007193   0.182632  -0.123807
    16    Se      -0.046070   0.180780  -0.195700
    17    Se      -0.049550  -0.049438  -0.082516
    18    Se       0.000892   0.075958  -0.144898
    19    Se      -0.197877   0.110385  -0.125484
    20    Se      -0.110641  -0.025535  -0.146885
    21    Se       0.036058   0.064474  -0.099268
    22    Se       0.052091  -0.029125   0.003826
    23    Se       0.090418  -0.136581  -0.084920
    24    Se      -0.123430   0.002847  -0.083743
    25    Se      -0.007721  -0.036726   0.031614
    26    Se       0.038846  -0.061696   0.084152
    27    Se       0.006660  -0.083294  -0.052439
    28    Se      -0.123989   0.140291  -0.092964
    29    Se      -0.044987  -0.034275  -0.036666
    30    Se      -0.054849  -0.060374   0.008288
    31    Se       0.068141  -0.087663   0.128280
    32    Se       0.001538  -0.060136   0.014598
    33    Se      -0.057847  -0.015562   0.020966
    34    Se      -0.078422  -0.019207  -0.056204
    35    Se      -0.007811   0.035247  -0.070754
    36    Se       0.058026   0.011606  -0.068074
    37    Se       0.009010   0.064557  -0.066025
    38    Se      -0.000648   0.122933  -0.032545
    39    Se       0.027130  -0.028411   0.002996
    40    Se      -0.006350  -0.089902  -0.002361
    41    Se       0.032508   0.035138   0.058398
    42    Se       0.023119   0.024345  -0.066970
    43    Se      -0.143705   0.046999  -0.144261
    44    Se      -0.001935   0.066946  -0.039380
    45    Se       0.016973  -0.020282   0.004535
    46    Se       0.019358  -0.016925   0.023831
    47    Se       0.104266  -0.083250   0.052257
    48    Se      -0.105148  -0.039051   0.128287
    49    At       0.075321   0.008098  -0.058365
 
 Mode:    16      Frequency (cm-1):       13.8831
 Index  Atom      ---- Displacements (x/y/z) ----
     1    Se      -0.026525  -0.012324  -0.032195
     2    Se       0.017244  -0.048486   0.005957
     3    Se      -0.106118  -0.123676  -0.082336
     4    Se      -0.181151   0.032196  -0.026662
     5    Se      -0.067824  -0.015457  -0.086842
     6    Se      -0.086206  -0.060758   0.017748
     7    Se       0.135821  -0.123649   0.156630
     8    Se       0.047123  -0.027729  -0.042377
     9    Se      -0.061705   0.016541  -0.051930
    10    Se      -0.070913  -0.004596  -0.084258
    11    Se      -0.099074   0.149249  -0.077503
    12    Se       0.130259   0.105099  -0.121141
    13    Se       0.032408   0.034991  -0.063037
    14    Se       0.040967   0.039175  -0.046048
    15    Se      -0.120934  -0.010983  -0.125660
    16    Se      -0.048591  -0.148167  -0.062846
    17    Se      -0.024597   0.001319  -0.050549
    18    Se       0.038644  -0.013769  -0.135344
    19    Se      -0.070197  -0.001793  -0.079642
    20    Se      -0.023974   0.073991  -0.062514
    21    Se       0.010207   0.041373  -0.065602
    22    Se       0.014165  -0.013627  -0.028107
    23    Se       0.050032   0.050655  -0.045135
    24    Se      -0.103101   0.015194   0.087697
    25    Se      -0.065943   0.014754   0.068239
    26    Se      -0.037106   0.029485   0.124613
    27    Se       0.104685   0.037346   0.245284
    28    Se       0.142254  -0.053521   0.147894
    29    Se       0.026336   0.041452   0.129008
[...]
    37    Se      -0.091830  -0.105492   0.001152
    38    Se       0.032144   0.122440  -0.086039
    39    Se       0.000357  -0.000059  -0.000250
    40    Se       0.014521   0.026435   0.077070
    41    Se      -0.037044  -0.034702   0.035777
    42    Se      -0.094222   0.084399  -0.162169
    43    Se       0.017396   0.023492  -0.069864
    44    Se      -0.050087   0.023662  -0.064174
    45    Se       0.025277   0.047349   0.045655
    46    Se       0.063774   0.113756   0.009439
    47    Se       0.000141  -0.000030  -0.000135
    48    Se       0.084988   0.059043   0.073665
    49    At      -0.000018   0.000015  -0.000105
 
 Mode:   142      Frequency (cm-1):      452.4357
 Index  Atom      ---- Displacements (x/y/z) ----
     1    Se      -0.087262  -0.103234   0.002961
     2    Se       0.023445   0.125920  -0.090969
     3    Se       0.000522   0.000223  -0.000151
     4    Se       0.011954   0.019586   0.060491
     5    Se      -0.038947  -0.031942   0.034406
     6    Se      -0.072763   0.068414  -0.123381
     7    Se      -0.005963  -0.010427   0.031184
     8    Se       0.135634  -0.071062   0.174337
     9    Se       0.026243   0.043982   0.044697
    10    Se       0.067451   0.123973   0.013651
    11    Se      -0.000011   0.000385   0.000121
    12    Se      -0.221367  -0.132329  -0.191915
    13    Se       0.066690   0.079252  -0.001350
    14    Se      -0.017832  -0.091582   0.070565
    15    Se      -0.000835  -0.000221   0.000418
    16    Se      -0.018876  -0.028814  -0.095256
    17    Se       0.032339   0.020795  -0.022207
    18    Se       0.115587  -0.114888   0.193771
    19    Se       0.008420   0.013214  -0.039856
    20    Se      -0.092717   0.048093  -0.118435
    21    Se      -0.025528  -0.033203  -0.038510
    22    Se      -0.050704  -0.095607  -0.011794
    23    Se      -0.000052  -0.000363  -0.000048
    24    Se       0.148254   0.084557   0.125795
    25    Se       0.121366   0.138836  -0.004104
    26    Se      -0.034282  -0.169558   0.122236
    27    Se      -0.000381  -0.000133   0.000169
    28    Se      -0.008185  -0.015790  -0.048723
    29    Se       0.049721   0.041402  -0.042877
    30    Se       0.053903  -0.048563   0.096059
    31    Se       0.019581   0.027253  -0.079723
    32    Se      -0.061194   0.027302  -0.069352
    33    Se      -0.036383  -0.059391  -0.061248
    34    Se      -0.084540  -0.154239  -0.017221
    35    Se      -0.000043  -0.000177  -0.000040
    36    Se       0.093359   0.054977   0.075823
    37    Se      -0.195496  -0.222907   0.007986
    38    Se       0.058072   0.276346  -0.194004
    39    Se       0.000320   0.000079  -0.000095
    40    Se       0.006400   0.014242   0.038045
    41    Se      -0.076094  -0.073286   0.076057
    42    Se      -0.040101   0.031773  -0.075273
    43    Se      -0.013036  -0.018404   0.054532
    44    Se       0.075368  -0.036090   0.088690
    45    Se       0.049939   0.098103   0.091584
    46    Se       0.135723   0.242344   0.021904
    47    Se       0.000039   0.000179   0.000059
    48    Se      -0.117720  -0.069043  -0.098890
    49    At      -0.000008   0.000008  -0.000045
 
 Mode:   143      Frequency (cm-1):      452.4682
 Index  Atom      ---- Displacements (x/y/z) ----
     1    Se       0.197918   0.227231  -0.027796
     2    Se      -0.052606  -0.294731   0.213949
     3    Se       0.000199   0.000160   0.000003
     4    Se       0.005174   0.006363   0.022864
     5    Se       0.069637   0.091387  -0.100902
     6    Se      -0.034864   0.036103  -0.051193
     7    Se       0.011243   0.015525  -0.048192
     8    Se       0.063878  -0.036342   0.093563
     9    Se      -0.031910  -0.102121  -0.070628
    10    Se      -0.144689  -0.254800  -0.005989
    11    Se      -0.000089   0.000266   0.000049
    12    Se      -0.111740  -0.069940  -0.097139
    13    Se      -0.105312  -0.119154   0.018441
    14    Se       0.024997   0.154736  -0.119680
    15    Se      -0.000458  -0.000135   0.000213
    16    Se      -0.011219  -0.014897  -0.053050
    17    Se      -0.036231  -0.045597   0.051216
    18    Se       0.069978  -0.073124   0.111979
    19    Se      -0.021081  -0.028055   0.086533
    20    Se      -0.027341   0.017101  -0.043502
    21    Se       0.018517   0.052944   0.037294
    22    Se       0.073723   0.131844   0.001605
    23    Se      -0.000005  -0.000193   0.000010
    24    Se       0.048129   0.026908   0.040064
    25    Se       0.051127   0.054905  -0.011849
    26    Se      -0.012844  -0.077468   0.056270
    27    Se       0.000785   0.000276  -0.000357
    28    Se       0.018793   0.031428   0.103734
    29    Se       0.012198   0.025516  -0.027840
    30    Se      -0.127125   0.122234  -0.213121
    31    Se       0.012368   0.015124  -0.045063
    32    Se       0.076292  -0.038521   0.099725
    33    Se      -0.002121  -0.025678  -0.011241
    34    Se      -0.031917  -0.053374   0.003531
    35    Se       0.000035   0.000366   0.000031
    36    Se      -0.123210  -0.072317  -0.099157
    37    Se      -0.114647  -0.127400   0.015286
    38    Se       0.033932   0.166680  -0.117613
    39    Se      -0.000435  -0.000282   0.000029
    40    Se      -0.010349  -0.018369  -0.054259
    41    Se      -0.035948  -0.053100   0.056527
    42    Se       0.070992  -0.063482   0.116184
    43    Se      -0.006438  -0.007110   0.021959
    44    Se      -0.135928   0.070567  -0.181931
    45    Se       0.015549   0.059107   0.038181
    46    Se       0.076594   0.130890   0.000464
    47    Se       0.000078  -0.000457  -0.000155
    48    Se       0.226335   0.139016   0.190760
    49    At       0.000014  -0.000011   0.000074
 
 Mode:   144      Frequency (cm-1):      457.2207
 Index  Atom      ---- Displacements (x/y/z) ----
     1    Se       0.102748   0.131422   0.059757
     2    Se      -0.038348  -0.091157   0.059965
     3    Se      -0.000260  -0.000023  -0.000067
     4    Se      -0.004900  -0.006533  -0.022164
     5    Se       0.032441  -0.133249   0.170882
     6    Se       0.029585  -0.032240   0.049679
     7    Se       0.004533   0.008072  -0.023718
     8    Se      -0.041630   0.018844  -0.050621
     9    Se      -0.133690  -0.011378  -0.171729
    10    Se       0.088893   0.142736  -0.058125
    11    Se       0.000087  -0.000164   0.000087
    12    Se       0.080457   0.074754   0.070569
    13    Se       0.131454   0.166972   0.071928
    14    Se      -0.049849  -0.110000   0.076944
    15    Se      -0.000334  -0.000053  -0.000150
    16    Se      -0.004631  -0.005668  -0.020578
    17    Se       0.045928  -0.169813   0.222726
    18    Se       0.027791  -0.032245   0.046340
    19    Se       0.003936   0.006389  -0.019106
    20    Se      -0.044662   0.018839  -0.052360
    21    Se      -0.175729  -0.016669  -0.217032
    22    Se       0.113416   0.185411  -0.078398
    23    Se       0.000103  -0.000195   0.000113
    24    Se       0.085658   0.081532   0.074084
    25    Se      -0.118582  -0.146700  -0.069738
    26    Se       0.045031   0.099783  -0.065606
    27    Se       0.000249   0.000030   0.000070
    28    Se       0.004211   0.006005   0.020896
    29    Se      -0.036441   0.160948  -0.200385
    30    Se      -0.027305   0.029883  -0.046484
    31    Se      -0.004770  -0.007495   0.021525
    32    Se       0.049362  -0.019333   0.055631
    33    Se       0.157731   0.007255   0.198520
    34    Se      -0.107479  -0.173417   0.065879
    35    Se      -0.000089   0.000210  -0.000101
    36    Se      -0.092549  -0.088078  -0.075748
    37    Se      -0.108786  -0.135009  -0.064886
    38    Se       0.041270   0.094476  -0.060593
    39    Se       0.000290   0.000019   0.000176
    40    Se       0.005131   0.008146   0.024887
    41    Se      -0.029718   0.148630  -0.182906
    42    Se      -0.032959   0.033437  -0.056868
    43    Se      -0.004702  -0.007666   0.021858
    44    Se       0.036998  -0.015915   0.044227
    45    Se       0.141820   0.005570   0.182878
    46    Se      -0.100610  -0.160213   0.058095
    47    Se      -0.000074   0.000158  -0.000116
    48    Se      -0.071010  -0.066320  -0.060126
    49    At      -0.000008   0.000004  -0.000042
 
 Mode:   145      Frequency (cm-1):      457.5367
 Index  Atom      ---- Displacements (x/y/z) ----
     1    Se       0.143957   0.184615   0.081659
     2    Se      -0.055021  -0.127262   0.083675
     3    Se      -0.000285  -0.000068  -0.000193
     4    Se      -0.003607  -0.004148  -0.013145
     5    Se       0.044644  -0.185713   0.237277
     6    Se       0.020818  -0.027912   0.034623
     7    Se      -0.005815  -0.009568   0.027957
     8    Se       0.023678  -0.014211   0.034012
     9    Se      -0.185547  -0.016042  -0.238108
    10    Se       0.124278   0.199915  -0.080096
    11    Se       0.000032   0.000061   0.000306
    12    Se      -0.047708  -0.042167  -0.041562
    13    Se      -0.145732  -0.185767  -0.077446
    14    Se       0.056402   0.122008  -0.085308
    15    Se       0.000285   0.000091   0.000271
    16    Se       0.002262   0.002172   0.007422
    17    Se      -0.050060   0.186366  -0.243535
    18    Se      -0.012889   0.019924  -0.021227
    19    Se       0.006162   0.009401  -0.027786
    20    Se      -0.035485   0.019199  -0.048138
    21    Se       0.192362   0.018929   0.237578
    22    Se      -0.124660  -0.204263   0.085057
    23    Se      -0.000019  -0.000102  -0.000328
    24    Se       0.070066   0.063491   0.060205
    25    Se      -0.094459  -0.117909  -0.053722
    26    Se       0.037361   0.079203  -0.051875
    27    Se       0.000445   0.000157  -0.000025
    28    Se       0.005781   0.008055   0.026931
    29    Se      -0.028613   0.127205  -0.157427
    30    Se      -0.036714   0.042454  -0.062546
    31    Se       0.003881   0.005247  -0.016041
    32    Se      -0.054293   0.023324  -0.064155
    33    Se       0.123648   0.006031   0.155980
    34    Se      -0.084350  -0.136972   0.051457
    35    Se      -0.000002  -0.000210  -0.000298
    36    Se       0.102750   0.096970   0.084093
    37    Se       0.062950   0.079007   0.036455
    38    Se      -0.025613  -0.053491   0.034074
    39    Se      -0.000374  -0.000118  -0.000035
    40    Se      -0.005650  -0.008759  -0.025133
    41    Se       0.017034  -0.085753   0.104792
    42    Se       0.035231  -0.038237   0.060753
    43    Se      -0.005232  -0.007336   0.022046
    44    Se       0.051209  -0.023654   0.063506
    45    Se      -0.080910  -0.003275  -0.104653
    46    Se       0.057283   0.091982  -0.033288
    47    Se      -0.000005   0.000222   0.000240
    48    Se      -0.099496  -0.093079  -0.084416
    49    At       0.000008  -0.000003   0.000044
 
 Mode:   146      Frequency (cm-1):      457.5552
 Index  Atom      ---- Displacements (x/y/z) ----
     1    Se      -0.086514  -0.109856  -0.049524
     2    Se       0.030838   0.078313  -0.051901
     3    Se      -0.000278  -0.000108   0.000355
     4    Se      -0.005876  -0.008347  -0.026837
     5    Se      -0.026587   0.111172  -0.142777
     6    Se       0.035321  -0.036386   0.059383
     7    Se       0.001544   0.003541  -0.008097
     8    Se       0.058484  -0.023971   0.067096
     9    Se       0.112247   0.009738   0.143290
    10    Se      -0.076238  -0.121106   0.047715
    11    Se      -0.000045   0.000309  -0.000034
    12    Se      -0.111137  -0.105259  -0.097902
    13    Se       0.071763   0.090323   0.038490
    14    Se      -0.025582  -0.061794   0.043685
    15    Se       0.000401   0.000122  -0.000448
    16    Se       0.006735   0.008984   0.030864
    17    Se       0.024696  -0.091284   0.119960
    18    Se      -0.040417   0.043492  -0.067681
    19    Se      -0.002391  -0.004547   0.011258
    20    Se      -0.050557   0.019746  -0.056664
    21    Se      -0.095559  -0.009274  -0.117174
    22    Se       0.062469   0.101025  -0.041525
    23    Se       0.000033  -0.000295   0.000010
    24    Se       0.096191   0.093650   0.083612
    25    Se      -0.135804  -0.167722  -0.078130
    26    Se       0.051412   0.114999  -0.075806
    27    Se      -0.000175  -0.000080   0.000405
    28    Se      -0.003986  -0.006757  -0.022256
    29    Se      -0.041302   0.181889  -0.226078
    30    Se       0.026573  -0.023663   0.045715
    31    Se       0.006235   0.010053  -0.026632
    32    Se       0.026895  -0.006821   0.024426
    33    Se       0.179112   0.008858   0.224682
    34    Se      -0.122488  -0.197316   0.073246
    35    Se      -0.000036   0.000196  -0.000193
    36    Se      -0.048440  -0.049114  -0.040055
    37    Se       0.151035   0.186976   0.088565
    38    Se      -0.057080  -0.131665   0.084657
    39    Se       0.000065   0.000055  -0.000515
    40    Se       0.003278   0.006322   0.018465
    41    Se       0.040448  -0.204584   0.251455
    42    Se      -0.021709   0.016690  -0.037965
    43    Se      -0.005096  -0.008452   0.022270
    44    Se      -0.031348   0.009618  -0.031441
    45    Se      -0.195793  -0.008218  -0.251537
    46    Se       0.140498   0.223116  -0.078345
    47    Se       0.000039  -0.000221   0.000219
    48    Se       0.058140   0.057644   0.049760
    49    At      -0.000005   0.000004  -0.000025
 
 Mode:   147      Frequency (cm-1):      457.9905
 Index  Atom      ---- Displacements (x/y/z) ----
     1    Se      -0.127825  -0.163385  -0.068029
     2    Se       0.044992   0.120032  -0.079804
     3    Se      -0.000105   0.000017   0.000426
     4    Se      -0.005509  -0.008068  -0.024393
     5    Se      -0.037260   0.160698  -0.204924
     6    Se       0.032897  -0.034074   0.055190
     7    Se      -0.004999  -0.007932   0.021940
     8    Se      -0.050675   0.024287  -0.063407
     9    Se       0.160410   0.014937   0.205409
    10    Se      -0.110740  -0.177664   0.066750
    11    Se       0.000053  -0.000050  -0.000338
    12    Se       0.094467   0.082143   0.082042
    13    Se      -0.106562  -0.135318  -0.052734
    14    Se       0.037484   0.095658  -0.067772
    15    Se      -0.000212  -0.000002   0.000493
    16    Se      -0.006043  -0.008328  -0.026831
    17    Se      -0.034696   0.132220  -0.172476
    18    Se       0.036072  -0.039483   0.060408
    19    Se      -0.006475  -0.009490   0.026710
    20    Se      -0.046072   0.021279  -0.056694
    21    Se       0.136731   0.014469   0.168484
    22    Se      -0.090900  -0.148565   0.058253
    23    Se       0.000055  -0.000048  -0.000287
    24    Se       0.085356   0.075319   0.073005
    25    Se      -0.111786  -0.138330  -0.060321
    26    Se       0.040145   0.099928  -0.066331
    27    Se      -0.000194  -0.000019   0.000438
    28    Se      -0.006135  -0.009712  -0.030766
    29    Se      -0.032394   0.145856  -0.180550
    30    Se       0.039812  -0.040902   0.068164
    31    Se      -0.006817  -0.009825   0.026578
    32    Se      -0.044287   0.018749  -0.051859
    33    Se       0.143215   0.008104   0.179685
    34    Se      -0.099767  -0.161230   0.056517
    35    Se       0.000050  -0.000029  -0.000307
    36    Se       0.079745   0.070258   0.064515
    37    Se      -0.121231  -0.150419  -0.066539
    38    Se       0.043797   0.111194  -0.071954
    39    Se      -0.000053   0.000044   0.000470
    40    Se      -0.005106  -0.009048  -0.024760
    41    Se      -0.030760   0.159604  -0.195387
    42    Se       0.032619  -0.030564   0.056373
    43    Se      -0.005992  -0.008767   0.023653
    44    Se      -0.050790   0.023265  -0.062631
    45    Se       0.152283   0.007612   0.195782
    46    Se      -0.111002  -0.176814   0.059027
    47    Se       0.000052  -0.000065  -0.000349
    48    Se       0.094135   0.082467   0.079038
    49    At       0.000007  -0.000004   0.000035

PES point character: Geometry corresponds to a local minimum on the PES.
NOTE: For periodic systems the PES point characterization only takes the nuclear
      degrees of freedom into account. The lattice degrees of freedom are not considered.

-----------
Bond orders
-----------

Description: Unknown
Only bonds with bond orders > 0.200 are printed.

 Index  Atom    Index  Atom    BondOrder
     1    Se        2    Se        3.000
     1    Se        9    Se        3.000
     2    Se       30    Se        3.000
     4    Se        6    Se        3.000
     5    Se        9    Se        3.000
     5    Se       10    Se        3.000
     6    Se       26    Se        3.000
     7    Se       32    Se        3.000
     8    Se       12    Se        3.000
     8    Se       31    Se        3.000
    10    Se       48    Se        3.000
    12    Se       46    Se        3.000
    13    Se       14    Se        3.000
    13    Se       21    Se        3.000
    14    Se       42    Se        3.000
    16    Se       18    Se        3.000
    17    Se       21    Se        3.000
    17    Se       22    Se        3.000
    18    Se       38    Se        3.000
    19    Se       44    Se        3.000
    20    Se       24    Se        3.000
    20    Se       43    Se        3.000
    22    Se       36    Se        3.000
    24    Se       34    Se        3.000
    25    Se       26    Se        3.000
    25    Se       33    Se        3.000
    28    Se       30    Se        3.000
    29    Se       33    Se        3.000
    29    Se       34    Se        3.000
    32    Se       36    Se        3.000
    37    Se       38    Se        3.000
    37    Se       45    Se        3.000
    40    Se       42    Se        3.000
    41    Se       45    Se        3.000
    41    Se       46    Se        3.000
    44    Se       48    Se        3.000


--------------
Atomic charges
--------------
  Index   Atom    Charge
      1     Se    0.0000
      2     Se    0.0000
      3     Se    0.0000
      4     Se    0.0000
      5     Se    0.0000
      6     Se    0.0000
      7     Se    0.0000
      8     Se    0.0000
      9     Se    0.0000
     10     Se    0.0000
     11     Se    0.0000
     12     Se    0.0000
     13     Se    0.0000
     14     Se    0.0000
     15     Se    0.0000
     16     Se    0.0000
     17     Se    0.0000
     18     Se    0.0000
     19     Se    0.0000
     20     Se    0.0000
     21     Se    0.0000
     22     Se    0.0000
     23     Se    0.0000
     24     Se    0.0000
     25     Se    0.0000
     26     Se    0.0000
     27     Se    0.0000
     28     Se    0.0000
     29     Se    0.0000
     30     Se    0.0000
     31     Se    0.0000
     32     Se    0.0000
     33     Se    0.0000
     34     Se    0.0000
     35     Se    0.0000
     36     Se    0.0000
     37     Se    0.0000
     38     Se    0.0000
     39     Se    0.0000
     40     Se    0.0000
     41     Se    0.0000
     42     Se    0.0000
     43     Se    0.0000
     44     Se    0.0000
     45     Se    0.0000
     46     Se    0.0000
     47     Se    0.0000
     48     Se    0.0000
     49     At    0.0000

 
--------------------
Energy Decomposition
--------------------
Total Energy (hartree)                -0.14127606
Total Energy (eV)                     -3.84431714
Bond bending (hartree)                 0.00052883
Bond stretching (hartree)              0.00008857
Bond torsion (hartree)                 0.01236127
Bond inversion (hartree)               0.00000000
Van Der Waals (hartree)               -0.15425474
Coulomb (hartree)                      0.00000000
Embedding (hartree)                    0.00000000
Total Bonded (hartree)                 0.01297868
Total NonBonded (hartree)             -0.15425474
 

Final PES point is a local minimum. Geometry optimization successful!


AMS application finished. Exiting.
NORMAL TERMINATION
     Total cpu time:       1.50
  Total system time:       1.14
 Total elapsed time:       4.51
