
     Program PWSCF v.7.4.1 starts on 16Apr2025 at 11:22:59 
        Git branch: develop
        Last git commit: c129e404a1b34e2d280280c5087d1dc05a879a3f
        Last git commit date: Sun Apr 13 10:22:52 2025 +0000
        Last git commit subject: Merge branch 'matdyn-remove-interaction-blocks' in

     This program is part of the open-source Quantum ESPRESSO suite
     for quantum simulation of materials; please cite
         "P. Giannozzi et al., J. Phys.:Condens. Matter 21 395502 (2009);
         "P. Giannozzi et al., J. Phys.:Condens. Matter 29 465901 (2017);
         "P. Giannozzi et al., J. Chem. Phys. 152 154105 (2020);
          URL http://www.quantum-espresso.org", 
     in publications or presentations arising from this work. More details at
     http://www.quantum-espresso.org/quote

     Parallel version (MPI), running on     8 processors

     MPI processes distributed on     1 nodes
     14932 MiB available memory on the printing compute node when the environment starts

     Waiting for input...
     Reading input from standard input

     Current dimensions of program PWSCF are:
     Max number of different atomic species (ntypx) = 10
     Max number of k-points (npk) =  40000
     Max angular momentum in pseudopotentials (lmaxx) =  4
     Message from routine setup:
     using ibrav=0 with symmetry is DISCOURAGED, use correct ibrav instead

     R & G space division:  proc/nbgrp/npool/nimage =       8
     Subspace diagonalization in iterative solution of the eigenvalue problem:
     a serial algorithm will be used


     Parallelization info
     --------------------
     sticks:   dense  smooth     PW     G-vecs:    dense   smooth      PW
     Min        2557    1278    320               275175    97304   12188
     Max        2558    1279    321               275180    97307   12193
     Sum       20461   10229   2561              2201421   778439   97521

     Using Slab Decomposition



     bravais-lattice index     =            0
     lattice parameter (alat)  =      28.3459  a.u.
     unit-cell volume          =   22775.6289 (a.u.)^3
     number of atoms/cell      =            2
     number of atomic types    =            1
     number of electrons       =        28.00
     number of Kohn-Sham states=           36
     kinetic-energy cutoff     =      40.0000  Ry
     charge density cutoff     =     320.0000  Ry
     scf convergence threshold =      4.0E-10
     mixing beta               =       0.4000
     number of iterations used =            8  plain     mixing
     Exchange-correlation= PBE
                           (   1   4   3   4   0   0   0)
     Non magnetic calculation with spin-orbit


     celldm(1)=  28.345892  celldm(2)=   0.000000  celldm(3)=   0.000000
     celldm(4)=   0.000000  celldm(5)=   0.000000  celldm(6)=   0.000000

     crystal axes: (cart. coord. in units of alat)
               a(1) = (   1.000000   0.000000   0.000000 )  
               a(2) = (   0.000000   1.000000   0.000000 )  
               a(3) = (   0.000000   0.000000   1.000000 )  

     reciprocal axes: (cart. coord. in units 2 pi/alat)
               b(1) = (  1.000000  0.000000  0.000000 )  
               b(2) = (  0.000000  1.000000  0.000000 )  
               b(3) = (  0.000000  0.000000  1.000000 )  


     PseudoPot. # 1 for Pb read from file:
     ./Pb_r.upf
     MD5 check sum: 73abbbd201951038fc1bdacebad68d2f
     Pseudo is Norm-conserving + core correction, Zval = 14.0
     Generated using ONCVPSP code by D. R. Hamann
     Using radial grid of 1782 points, 10 beta functions with: 
                l(1) =   0
                l(2) =   0
                l(3) =   1
                l(4) =   1
                l(5) =   1
                l(6) =   1
                l(7) =   2
                l(8) =   2
                l(9) =   2
               l(10) =   2

     atomic species   valence    mass     pseudopotential
     Pb               14.00   207.20000     Pb( 1.00)

      4 Sym. Ops. (no inversion) found



   Cartesian axes

     site n.     atom                  positions (alat units)
         1        Pb     tau(   1) = (   0.0000000   0.0000000   0.0000000  )
         2        Pb     tau(   2) = (   0.0800000   0.0000000   2.5000000  )

     number of k points=     1  Marzari-Vanderbilt smearing, width (Ry)=  0.0200
                       cart. coord. in units 2pi/alat
        k(    1) = (   0.0000000   0.0000000   0.0000000), wk =   1.0000000

     Dense  grid:  2201421 G-vectors     FFT dimensions: ( 162, 162, 162)

     Smooth grid:   778439 G-vectors     FFT dimensions: ( 120, 120, 120)

     Estimated max dynamical RAM per process >     549.41 MB

     Estimated total dynamical RAM >       4.29 GB

     Initial potential from superposition of free atoms

     starting charge      27.9949, renormalised to      28.0000

     negative rho (up, down):  7.961E-05 0.000E+00
     Starting wfcs are   36 randomized atomic wfcs

     total cpu time spent up to now is        1.7 secs

     per-process dynamical memory:   280.3 Mb

     Self-consistent Calculation

     iteration #  1     ecut=    40.00 Ry     beta= 0.40
     Davidson diagonalization with overlap
     ethr =  1.00E-02,  avg # of iterations =  1.0

     Threshold (ethr) on eigenvalues was too large:
     Diagonalizing with lowered threshold

     Davidson diagonalization with overlap
     ethr =  6.77E-05,  avg # of iterations =  2.0

     negative rho (up, down):  4.619E-07 0.000E+00

     total cpu time spent up to now is        5.2 secs

     WARNING: integrated charge=    28.00146279, expected=    28.00000000

     total energy              =    -280.63917290 Ry
     estimated scf accuracy    <       0.01914652 Ry

     iteration #  2     ecut=    40.00 Ry     beta= 0.40
     Davidson diagonalization with overlap
     ethr =  6.84E-05,  avg # of iterations =  2.0

     negative rho (up, down):  5.824E-05 0.000E+00

     total cpu time spent up to now is        7.3 secs

     WARNING: integrated charge=    28.00472752, expected=    28.00000000

     total energy              =    -280.63910765 Ry
     estimated scf accuracy    <       0.00367961 Ry

     iteration #  3     ecut=    40.00 Ry     beta= 0.40
     Davidson diagonalization with overlap
     ethr =  1.31E-05,  avg # of iterations =  4.0

     negative rho (up, down):  3.920E-05 0.000E+00

     total cpu time spent up to now is        9.7 secs

     WARNING: integrated charge=    28.00757747, expected=    28.00000000

     total energy              =    -280.64031383 Ry
     estimated scf accuracy    <       0.00013397 Ry

     iteration #  4     ecut=    40.00 Ry     beta= 0.40
     Davidson diagonalization with overlap
     ethr =  4.78E-07,  avg # of iterations =  2.0

     negative rho (up, down):  1.819E-05 0.000E+00

     total cpu time spent up to now is       12.2 secs

     WARNING: integrated charge=    28.00815998, expected=    28.00000000

     total energy              =    -280.64028109 Ry
     estimated scf accuracy    <       0.00000936 Ry

     iteration #  5     ecut=    40.00 Ry     beta= 0.40
     Davidson diagonalization with overlap
     ethr =  3.34E-08,  avg # of iterations =  2.0

     negative rho (up, down):  1.236E-05 0.000E+00

     total cpu time spent up to now is       14.4 secs

     WARNING: integrated charge=    28.00899360, expected=    28.00000000

     total energy              =    -280.64031622 Ry
     estimated scf accuracy    <       0.00000077 Ry

     iteration #  6     ecut=    40.00 Ry     beta= 0.40
     Davidson diagonalization with overlap
     ethr =  2.76E-09,  avg # of iterations =  3.0

     negative rho (up, down):  4.351E-06 0.000E+00

     total cpu time spent up to now is       16.9 secs

     WARNING: integrated charge=    28.00906225, expected=    28.00000000

     total energy              =    -280.64032589 Ry
     estimated scf accuracy    <       0.00000024 Ry

     iteration #  7     ecut=    40.00 Ry     beta= 0.40
     Davidson diagonalization with overlap
     ethr =  8.70E-10,  avg # of iterations =  2.0

     negative rho (up, down):  1.186E-06 0.000E+00

     total cpu time spent up to now is       19.3 secs

     WARNING: integrated charge=    28.00905753, expected=    28.00000000

     total energy              =    -280.64032102 Ry
     estimated scf accuracy    <          2.4E-09 Ry

     iteration #  8     ecut=    40.00 Ry     beta= 0.40
     Davidson diagonalization with overlap
     ethr =  8.64E-12,  avg # of iterations =  4.0

     negative rho (up, down):  2.482E-07 0.000E+00

     total cpu time spent up to now is       22.1 secs

     WARNING: integrated charge=    28.00905617, expected=    28.00000000

     total energy              =    -280.64032062 Ry
     estimated scf accuracy    <          5.4E-10 Ry

     iteration #  9     ecut=    40.00 Ry     beta= 0.40
     Davidson diagonalization with overlap
     ethr =  1.94E-12,  avg # of iterations =  3.0

     total cpu time spent up to now is       24.2 secs

     End of self-consistent calculation

          k = 0.0000 0.0000 0.0000 ( 97521 PWs)   bands (ev):

   -21.3409 -21.3409 -21.3409 -21.3409 -21.3407 -21.3407 -21.3401 -21.3401
   -18.7705 -18.7705 -18.7704 -18.7704 -18.7701 -18.7701 -18.7698 -18.7698
   -18.7698 -18.7698 -18.7693 -18.7693 -10.9447 -10.9447 -10.9433 -10.9433
    -3.7140  -3.7140  -3.6920  -3.6920  -2.3997  -2.3997  -2.3494  -2.3494
    -2.3191  -2.3191  -2.2667  -2.2667

     the Fermi energy is    -2.8732 ev

     WARNING: integrated charge=    28.00905818, expected=    28.00000000

!    total energy              =    -280.64032113 Ry
     estimated scf accuracy    <          3.2E-11 Ry
     smearing contrib. (-TS)   =       0.00014238 Ry
     internal energy E=F+TS    =    -280.64046351 Ry

     The total energy is F=E-TS. E is the sum of the following terms:
     one-electron contribution =    -332.38699011 Ry
     hartree contribution      =     171.93388947 Ry
     xc contribution           =     -79.15684580 Ry
     ewald contribution        =     -41.03051707 Ry

     convergence has been achieved in   9 iterations

     Forces acting on atoms (cartesian axes, Ry/au):

     atom    1 type  1   force =     0.00004890    0.00000000    0.00000000
     atom    2 type  1   force =    -0.00004890    0.00000000    0.00000000

     Total force =     0.000069     Total SCF correction =     0.000004


     Computing stress (Cartesian axis) and pressure

          total   stress  (Ry/bohr**3)                   (kbar)     P=       -2.59
  -0.00001754   0.00000000   0.00000000           -2.58        0.00        0.00
   0.00000000  -0.00001754   0.00000000            0.00       -2.58        0.00
   0.00000000   0.00000000  -0.00001769            0.00        0.00       -2.60


     Writing all to output data dir ./out/aiida.save/ :
     XML data file, charge density, pseudopotentials, collected wavefunctions

     init_run     :      1.55s CPU      1.69s WALL (       1 calls)
     electrons    :     21.54s CPU     22.48s WALL (       1 calls)
     forces       :      0.37s CPU      0.39s WALL (       1 calls)
     stress       :      1.05s CPU      1.11s WALL (       1 calls)

     Called by init_run:
     wfcinit      :      0.43s CPU      0.48s WALL (       1 calls)
     potinit      :      0.45s CPU      0.48s WALL (       1 calls)
     hinit0       :      0.04s CPU      0.09s WALL (       1 calls)

     Called by electrons:
     c_bands      :     11.92s CPU     12.30s WALL (      10 calls)
     sum_band     :      4.05s CPU      4.28s WALL (      10 calls)
     v_of_rho     :      2.51s CPU      2.62s WALL (      10 calls)
     mix_rho      :      2.12s CPU      2.26s WALL (      10 calls)

     Called by c_bands:
     init_us_2    :      0.13s CPU      0.14s WALL (      22 calls)
     cegterg      :     11.19s CPU     11.57s WALL (      10 calls)

     Called by *egterg:
     cdiaghg      :      0.02s CPU      0.04s WALL (      34 calls)
     h_psi        :     10.24s CPU     10.65s WALL (      36 calls)
     g_psi        :      0.05s CPU      0.05s WALL (      25 calls)

     Called by h_psi:
     h_psi:calbec :      0.25s CPU      0.25s WALL (      36 calls)
     vloc_psi     :      9.64s CPU     10.04s WALL (      36 calls)
                                        0.00s GPU  (      36 calls)
     add_vuspsi   :      0.25s CPU      0.25s WALL (      36 calls)

     General routines
     calbec       :      0.38s CPU      0.39s WALL (      53 calls)
     fft          :      3.93s CPU      4.29s WALL (     257 calls)
     ffts         :      0.29s CPU      0.31s WALL (      80 calls)
     fftw         :      7.59s CPU      7.92s WALL (    4528 calls)
     interpolate  :      0.99s CPU      1.06s WALL (      40 calls)

     Parallel routines

     PWSCF        :     24.60s CPU     25.86s WALL


   This run was terminated on:  11:23:25  16Apr2025            

=------------------------------------------------------------------------------=
   JOB DONE.
=------------------------------------------------------------------------------=
