

 Parallel Execution: Process Information
 ==============================================================================
 Rank   Node Name                              NodeID   MyNodeRank  NodeMaster
    0   ubuntu-kch                                0          0          0
    1   ubuntu-kch                                0          1         -1
    2   ubuntu-kch                                0          2         -1
    3   ubuntu-kch                                0          3         -1
 ==============================================================================


May use up to 7570MB of RAM as shared memory on node 0

 *******************************************************************************
 *                                                                             *
 *  --------------------------------                                           *
 *   Amsterdam Modeling Suite (AMS)              2021.105                      *
 *  --------------------------------                                           *
 *                                               r97261 2021-09-16             *
 *                                                                             *
 *                                                                             *
 *                              =================                              *
 *                              |               |                              *
 *                              |     A M S     |                              *
 *                              |               |                              *
 *                              =================                              *
 *                                                                             *
 *                                                                             *
 *   Online information and documentation:  https://www.scm.com/support/       *
 *   E-mail:  support@scm.com   info@scm.com                                   *
 *                                                                             *
 *   Scientific publications using AMS results must be properly referenced     *
 *   See the User Manuals (or the web site) for recommended citations          *
 *   The terms and conditions of the End User License Agreement apply to       *
 *   the use of AMS, https://www.scm.com/license-terms/                        *
 *                                                                             *
 **********************  x86_64_linux_intel / intelmpi  ************************
 
 Licensed to: Dr. Miroslav Ilias / Matej Bel University, Department Chemistry, Fac. Natural Sciences / Banska Bystrica / SLOVAKIA
 SCM User ID: u17848
  
 AMS 2021.105  RunTime: Nov25-2021 16:01:52  ShM Nodes: 1  Procs: 4

 AMS jobname: ams
 AMS jobid  : 21101784

 Start   directory: /home/milias/work/projects/open-collection/theoretical_chemistry/projects/nmr_diplomovky/derivaty_markerov/derivative_7_Ivan/ams/nonrel/geometry_optimization/geopt_pbe0_tzp_good_cosmo-chcl3/tmp.milias.186246.0.noindex/
 Results directory: /home/milias/work/projects/open-collection/theoretical_chemistry/projects/nmr_diplomovky/derivaty_markerov/derivative_7_Ivan/ams/nonrel/geometry_optimization/geopt_pbe0_tzp_good_cosmo-chcl3/der7.geopt_pbe0_tzp_good_cosmo-chcl3.results/
 Scratch directory: /tmp/amstmp_ams_kid0.21101784/


 Communication costs MPI_COMM_WORLD:      0.777 usec per message,   0.0113 usec per 8-byte item
 Communication costs for intra-node:      0.357 usec per message,   0.0117 usec per 8-byte item

 RNG seed: 1346089915 -578438264 884105092 -2065708832 1353630687 -1801261725 -365365895 1255357992



                      ************************************************************************
                      *  ADF 2021.105  RunTime: Nov25-2021 16:01:54  ShM Nodes: 1  Procs: 4  *
                      ************************************************************************
  
       ***************************
       *  GEOMETRY OPTIMIZATION  *
       ***************************

Optimization Method                    Quasi Newton
Optimization Coordinates               Delocalized Coordinates
Optimize lattice                       F
 
 ------------------------------------------------------
 Convergence criteria (Hartree,Angstrom)
 ------------------------------------------------------
 Maximum gradient               0.001000000000
 Maximum rms gradient           0.000666666667
 Maximum step allowed           0.001000000000
 Maximum rms step allowed       0.000666666667
 Maximum energy change allowe   0.000410000000
 Maximum stress energy allowe   0.000500000000
 
Initial model Hessian                  Automatic Hessian
 
------------------------------------
Quasi-Newton Optimizer Parameters
------------------------------------
Hessian Update Method                  BFGS
Maximum number of steps                  250
First GDIIS cycle                          0
Maximum GDIIS vectors                      0
Trust radius (bohr)                        0.200000
Trust radius varies                        T
Constraints converged at all steps         T
Use projector                              T
 
 Rigid motions settings for: old optimizer
 Atomic rotations (x,y,z):     T T T
 Atomic translations (x,y,z):  T T T
 Tolerance:                   1.000000000000000E-006
 
--------
Geometry
--------
Formula: C12H25O3P
Atoms
  Index Symbol   x (angstrom)   y (angstrom)   z (angstrom)
      1      O     3.37591287    -0.45791577    -0.00221649       adf.R=1.517
      2      P     2.29699306     0.20842948    -1.01437321       adf.R=1.850
      3      O     1.51401719     1.30849198    -0.09765222       adf.R=1.517
      4      O     1.09754956    -0.89737150    -0.87991553       adf.R=1.517
      5      C     0.42139727     0.74770148     0.67297333       adf.R=1.700
      6      C    -0.10186330    -0.38938517    -0.25294988       adf.R=1.700
      7      C     0.96676355     0.23990190     1.99911023       adf.R=1.700
      8      C    -0.57926571     1.85842384     0.91419049       adf.R=1.700
      9      C    -1.01694691     0.11715925    -1.35736995       adf.R=1.700
     10      C    -0.75896457    -1.53514572     0.48847961       adf.R=1.700
     11      H     0.15429310    -0.08118277     2.65211531       adf.R=1.350
     12      H     1.66001079    -0.58809134     1.86044670       adf.R=1.350
     13      H     1.49903431     1.05346561     2.49337606       adf.R=1.350
     14      H    -0.86751550     2.34838559    -0.01400432       adf.R=1.350
     15      H    -1.47579544     1.46236913     1.39504393       adf.R=1.350
     16      H    -0.14335576     2.60560763     1.57830966       adf.R=1.350
     17      H    -1.98500743     0.42366015    -0.96018413       adf.R=1.350
     18      H    -0.57374127     0.96160014    -1.88699481       adf.R=1.350
     19      H    -1.18104001    -0.68892728    -2.07311536       adf.R=1.350
     20      H    -1.62762520    -1.17760817     1.04484840       adf.R=1.350
     21      H    -1.10163839    -2.28478500    -0.22561330       adf.R=1.350
     22      H    -0.06907356    -2.01030444     1.18320527       adf.R=1.350
     23      C     4.76324350    -0.50910508    -0.37390362       adf.R=1.700
     24      C     5.60039668     0.24958989     0.67439774       adf.R=1.700
     25      H     4.49097376    -2.39018321    -1.36039268       adf.R=1.350
     26      H     4.97432746    -2.54154965     0.33053673       adf.R=1.350
     27      C     5.45189082    -0.37065281     2.06147578       adf.R=1.700
     28      C     5.13019091     1.70280676     0.71884718       adf.R=1.700
     29      H     6.16352291    -2.07334500    -0.89790753       adf.R=1.350
     30      C     5.12610540    -1.96437841    -0.58242153       adf.R=1.700
     31      H     4.88307052     0.02387939    -1.32689460       adf.R=1.350
     32      C     7.06921217     0.22606816     0.25264768       adf.R=1.700
     33      H     5.74371101     2.27519482     1.41805032       adf.R=1.350
     34      H     4.09066984     1.77607189     1.04034647       adf.R=1.350
     35      H     5.21592621     2.17359434    -0.26470646       adf.R=1.350
     36      H     5.84117168    -1.39003916     2.09452153       adf.R=1.350
     37      H     4.40530901    -0.39241341     2.36941221       adf.R=1.350
     38      H     6.00878387     0.21883664     2.79356295       adf.R=1.350
     39      H     7.65564437     0.86267879     0.91866439       adf.R=1.350
     40      H     7.19625571     0.60374245    -0.76560763       adf.R=1.350
     41      H     7.49299250    -0.77820352     0.29914983       adf.R=1.350
 
Total System Charge             0.00000
Bonding info available!
 
 
----------------
ADF Engine Input
----------------
 
 Basis
 Type TZP
 Core None
 End
 XC
 Hybrid PBE0
 End
 Relativity
 Level None
 End
 Symmetry NOSYM
 Solvation
 Surf Delley
 Solv name=Chloroform cav0=0.0 cav1=0.0067639
 Charged method=CONJ
 C-Mat POT
 SCF VAR ALL
 CSMRSP
 End
 NumericalQuality Good
 

 Title: *** (NO TITLE) ***

 Using automatic Hessian for delocalized coordinates.
 *** GOStep1 ***

 SOLVATION
-------------------------------------------

  The Delley construction of COSMO surface surface is calculated

       Division Level for Surface Triangles (NDIV)                  3
       Final Division Level for Triangles (NFDIV)                   1
       Radius of the Solvent (RSOL)                           3.17000 angstr
  Dielectric Constant (EPSL)                                  4.80000

       COSMO equation is solved iteratively-               conjugate-gradient

       Maximun of Iterations for Charges (NCIX)                  1000
       Criterion for Charge convergence (CCNV)                1.0E-08

  COSMO charges included variationally in SCF

       COSMO included at every SCF cycle

  Geometry-dependent empirical factor                         0.00000

  C-Matrix calculated in cspmtx

  In cspmtx, C-Matrix calculated using fitted potential

-------------------------------------------



 -------------------------------------------
  COSMO surface
  Area             =          977.889
  Volume           =         2233.188
  Number of Points =         2309
 -------------------------------------------



 ======================
 RI Hartree-Fock Scheme
 ======================
  
 Fit Set Quality     : GOOD
 Integration Quality : GOOD
 Threshold Quality   : GOOD
 Response Quality    : DEFAULT
 Is Range Separated  :  F
 
 RIHartreeFock Dependency: number of modified vectors:          30
 cosmo_calcen: 0.5 (esolb+esolc) (Hartrees) =   -0.007205

 Solvation energy (screening term,uncorrected) =     -4.521262 kcal/mol

 Solvation energy (dispersion and cavitation terms) =      1.466329 kcal/mol
 Solvation Energy Contributions (Hartrees)
          esola   esolb+esolc
     0.00720509   -0.01441018
 esol last cycle   -0.00720509
  
 Hartree-Fock exchange energy:   -118.584606381337     
 cosmo_calcen: 0.5 (esolb+esolc) (Hartrees) =   -0.007205

 Solvation energy (screening term,uncorrected) =     -4.521263 kcal/mol

 Solvation energy (dispersion and cavitation terms) =      1.466329 kcal/mol
 Solvation Energy Contributions (Hartrees)
          esola   esolb+esolc
     0.00720509   -0.01441018
 esol last cycle   -0.00720509
  pauli hf:                              3.103140812036578         84.4408          1947.25          8147.30
  elstat hf:                            -4.140876539614521       -112.6790         -2598.44        -10871.87

 Energy gradients wrt nuclear displacements
 ==========================================

     Atom      Cartesian (a.u./angstrom)
                 X         Y         Z
 ----------------------------------------
     1 O    -0.001019  0.004893 -0.009316
     2 P    -0.004753 -0.004100  0.010544
     3 O     0.000852 -0.009525 -0.002824
     4 O     0.003331  0.009498  0.001813
     5 C     0.002627  0.002798 -0.001754
     6 C     0.002726 -0.002751 -0.001542
     7 C    -0.000090 -0.000097  0.000020
     8 C     0.000068 -0.000159  0.000174
     9 C    -0.000134 -0.000015  0.000116
    10 C    -0.000078  0.000160 -0.000110
    11 H     0.000630  0.000274 -0.000499
    12 H    -0.000593  0.000627  0.000203
    13 H    -0.000428 -0.000545 -0.000352
    14 H     0.000206 -0.000359  0.000734
    15 H     0.000604  0.000333 -0.000368
    16 H    -0.000291 -0.000562 -0.000531
    17 H     0.000769 -0.000242 -0.000294
    18 H    -0.000391 -0.000619  0.000384
    19 H     0.000141  0.000522  0.000563
    20 H     0.000646 -0.000301 -0.000312
    21 H     0.000292  0.000558  0.000516
    22 H    -0.000550  0.000336 -0.000484
    23 C    -0.003821 -0.000852  0.003129
    24 C     0.000117 -0.000229 -0.000107
    25 H     0.000423  0.000258  0.000538
    26 H     0.000094  0.000474 -0.000671
    27 C    -0.000079  0.000002  0.000025
    28 C    -0.000027  0.000005  0.000010
    29 H    -0.000879 -0.000006  0.000223
    30 C     0.000208  0.000099  0.000111
    31 H    -0.000156 -0.000176  0.000479
    32 C     0.000063  0.000098  0.000137
    33 H    -0.000504 -0.000483 -0.000538
    34 H     0.000900  0.000019 -0.000198
    35 H    -0.000075 -0.000408  0.000764
    36 H    -0.000327  0.000856 -0.000019
    37 H     0.000881 -0.000016 -0.000270
    38 H    -0.000397 -0.000403 -0.000582
    39 H    -0.000451 -0.000452 -0.000475
    40 H    -0.000153 -0.000308  0.000780
    41 H    -0.000385  0.000798 -0.000017
 ----------------------------------------
 Mulliken charges used for AMS results%charges...
 
----------------------------------------------------------------------
Geometry Convergence after Step   1       (Hartree/Angstrom,Angstrom)
----------------------------------------------------------------------
current energy                              -10.16737082 Hartree
energy change                     -10.16737082     0.00041000    F
constrained gradient max            0.01054554     0.00100000    F
constrained gradient rms            0.00210351     0.00066667    F
gradient max                        0.01054554
gradient rms                        0.00210351
cart. step max                      0.04537449     0.00100000    F
cart. step rms                      0.02063129     0.00066667    F
 
 
--------
Geometry
--------
Formula: C12H25O3P
Atoms
  Index Symbol   x (angstrom)   y (angstrom)   z (angstrom)
      1      O     3.38253759    -0.46730923     0.03026573       adf.R=1.517
      2      P     2.30198821     0.20840812    -0.98150160       adf.R=1.850
      3      O     1.51221758     1.30730797    -0.06093954       adf.R=1.517
      4      O     1.09707763    -0.90074690    -0.86734943       adf.R=1.517
      5      C     0.40565526     0.73986190     0.68905526       adf.R=1.700
      6      C    -0.10993732    -0.38607003    -0.25536734       adf.R=1.700
      7      C     0.93144421     0.21699376     2.01772946       adf.R=1.700
      8      C    -0.59490629     1.85221500     0.92638351       adf.R=1.700
      9      C    -1.00230732     0.13588286    -1.37182078       adf.R=1.700
     10      C    -0.78780210    -1.53289226     0.46649073       adf.R=1.700
     11      H     0.10891861    -0.10855170     2.65657472       adf.R=1.350
     12      H     1.62458418    -0.61183590     1.87970320       adf.R=1.350
     13      H     1.45956939     1.02417403     2.52762573       adf.R=1.350
     14      H    -0.86814576     2.35193769    -0.00171184       adf.R=1.350
     15      H    -1.49991471     1.45445116     1.39063825       adf.R=1.350
     16      H    -0.16614012     2.59199177     1.60405717       adf.R=1.350
     17      H    -1.97507885     0.44734329    -0.98895563       adf.R=1.350
     18      H    -0.54305464     0.98091736    -1.88759130       adf.R=1.350
     19      H    -1.16044311    -0.66376951    -2.09674086       adf.R=1.350
     20      H    -1.66351422    -1.17278491     1.01087101       adf.R=1.350
     21      H    -1.12402432    -2.27506824    -0.25906582       adf.R=1.350
     22      H    -0.11280115    -2.01828722     1.16942618       adf.R=1.350
     23      C     4.76731950    -0.51806560    -0.36127890       adf.R=1.700
     24      C     5.61696294     0.25408451     0.66768596       adf.R=1.700
     25      H     4.48732142    -2.40977350    -1.32675318       adf.R=1.350
     26      H     4.99438386    -2.54404148     0.35946549       adf.R=1.350
     27      C     5.48832232    -0.35111428     2.06395233       adf.R=1.700
     28      C     5.14377093     1.70715532     0.70169673       adf.R=1.700
     29      H     6.16573069    -2.08314417    -0.88979044       adf.R=1.350
     30      C     5.13181707    -1.97464130    -0.56117813       adf.R=1.700
     31      H     4.87252480     0.00611116    -1.32118727       adf.R=1.350
     32      C     7.08039746     0.22830979     0.22582021       adf.R=1.700
     33      H     5.76490793     2.28927165     1.38676885       adf.R=1.350
     34      H     4.10765023     1.78144119     1.03544239       adf.R=1.350
     35      H     5.21588279     2.16716422    -0.28857571       adf.R=1.350
     36      H     5.87998881    -1.36991230     2.10313096       adf.R=1.350
     37      H     4.44553509    -0.37104431     2.38638309       adf.R=1.350
     38      H     6.05414514     0.24760931     2.78225660       adf.R=1.350
     39      H     7.67502363     0.87358855     0.87679551       adf.R=1.350
     40      H     7.19295639     0.59495618    -0.79866046       adf.R=1.350
     41      H     7.50697325    -0.77505202     0.27773771       adf.R=1.350
 
Total System Charge             0.00000
Bonding info available!
 
 *** GOStep2 ***

 SOLVATION
-------------------------------------------

  The Delley construction of COSMO surface surface is calculated

       Division Level for Surface Triangles (NDIV)                  3
       Final Division Level for Triangles (NFDIV)                   1
       Radius of the Solvent (RSOL)                           3.17000 angstr
  Dielectric Constant (EPSL)                                  4.80000

       COSMO equation is solved iteratively-               conjugate-gradient

       Maximun of Iterations for Charges (NCIX)                  1000
       Criterion for Charge convergence (CCNV)                1.0E-08

  COSMO charges included variationally in SCF

       COSMO included at every SCF cycle

  Geometry-dependent empirical factor                         0.00000

  C-Matrix calculated in cspmtx

  In cspmtx, C-Matrix calculated using fitted potential

-------------------------------------------



 -------------------------------------------
  COSMO surface
  Area             =          978.363
  Volume           =         2233.316
  Number of Points =         2306
 -------------------------------------------



 ======================
 RI Hartree-Fock Scheme
 ======================
  
 Fit Set Quality     : GOOD
 Integration Quality : GOOD
 Threshold Quality   : GOOD
 Response Quality    : DEFAULT
 Is Range Separated  :  F
 
 RIHartreeFock Dependency: number of modified vectors:          30
 cosmo_calcen: 0.5 (esolb+esolc) (Hartrees) =   -0.007219

 Solvation energy (screening term,uncorrected) =     -4.530072 kcal/mol

 Solvation energy (dispersion and cavitation terms) =      1.467040 kcal/mol
 Solvation Energy Contributions (Hartrees)
          esola   esolb+esolc
     0.00721913   -0.01443826
 esol last cycle   -0.00721913
  
 Hartree-Fock exchange energy:   -118.566714972901     
 cosmo_calcen: 0.5 (esolb+esolc) (Hartrees) =   -0.007219

 Solvation energy (screening term,uncorrected) =     -4.530073 kcal/mol

 Solvation energy (dispersion and cavitation terms) =      1.467040 kcal/mol
 Solvation Energy Contributions (Hartrees)
          esola   esolb+esolc
     0.00721913   -0.01443826
 esol last cycle   -0.00721913
  pauli hf:                              3.133259767063613         85.2603          1966.15          8226.37
  elstat hf:                            -4.130735319409112       -112.4030         -2592.08        -10845.24

 Energy gradients wrt nuclear displacements
 ==========================================

     Atom      Cartesian (a.u./angstrom)
                 X         Y         Z
 ----------------------------------------
     1 O     0.001288  0.002750 -0.005368
     2 P    -0.003277 -0.003064  0.007490
     3 O     0.000230 -0.002831 -0.001605
     4 O     0.000902  0.003988 -0.000508
     5 C     0.001824  0.001759 -0.000909
     6 C     0.001593 -0.001810 -0.001118
     7 C    -0.000207 -0.000242  0.000292
     8 C     0.000104 -0.000104  0.000013
     9 C    -0.000150 -0.000079  0.000041
    10 C    -0.000021  0.000126 -0.000018
    11 H     0.000151  0.000151 -0.000116
    12 H    -0.000355  0.000340  0.000145
    13 H    -0.000125 -0.000132 -0.000052
    14 H     0.000023 -0.000075  0.000206
    15 H     0.000212  0.000109 -0.000134
    16 H    -0.000095 -0.000135 -0.000181
    17 H     0.000221 -0.000068 -0.000088
    18 H    -0.000101 -0.000248  0.000096
    19 H     0.000022  0.000143  0.000134
    20 H     0.000215 -0.000105 -0.000089
    21 H     0.000085  0.000139  0.000168
    22 H    -0.000180  0.000071 -0.000116
    23 C    -0.002887 -0.000633  0.001909
    24 C     0.000186  0.000027 -0.000040
    25 H     0.000126  0.000058  0.000153
    26 H    -0.000003  0.000157 -0.000191
    27 C     0.000011 -0.000024 -0.000019
    28 C    -0.000077 -0.000063  0.000015
    29 H    -0.000241 -0.000094  0.000069
    30 C     0.000475  0.000023 -0.000105
    31 H     0.000220  0.000029  0.000073
    32 C    -0.000071 -0.000003  0.000011
    33 H    -0.000130 -0.000151 -0.000178
    34 H     0.000250 -0.000002 -0.000147
    35 H    -0.000051 -0.000125  0.000236
    36 H    -0.000090  0.000285  0.000045
    37 H     0.000332 -0.000016 -0.000010
    38 H    -0.000145 -0.000118 -0.000176
    39 H    -0.000146 -0.000159 -0.000142
    40 H    -0.000030 -0.000103  0.000238
    41 H    -0.000089  0.000228 -0.000022
 ----------------------------------------
 Mulliken charges used for AMS results%charges...

 dE(predicted):    -0.13088E-03, dE(actual):    -0.16135E-03, Trust radius:    0.200000, all in a.u.
 
----------------------------------------------------------------------
Geometry Convergence after Step   2       (Hartree/Angstrom,Angstrom)
----------------------------------------------------------------------
current energy                              -10.16753217 Hartree
energy change                      -0.00016135     0.00041000    T
constrained gradient max            0.00749210     0.00100000    F
constrained gradient rms            0.00117883     0.00066667    F
gradient max                        0.00749210
gradient rms                        0.00117883
cart. step max                      0.04491471     0.00100000    F
cart. step rms                      0.01841945     0.00066667    F
 
 
--------
Geometry
--------
Formula: C12H25O3P
Atoms
  Index Symbol   x (angstrom)   y (angstrom)   z (angstrom)
      1      O     3.37754701    -0.47451147     0.04460660       adf.R=1.517
      2      P     2.30759236     0.21242003    -0.97868109       adf.R=1.850
      3      O     1.51410095     1.30709217    -0.04795393       adf.R=1.517
      4      O     1.09711143    -0.89914184    -0.87299948       adf.R=1.517
      5      C     0.40760356     0.72850556     0.69838718       adf.R=1.700
      6      C    -0.11208611    -0.38092984    -0.26212984       adf.R=1.700
      7      C     0.94175295     0.18419671     2.01522235       adf.R=1.700
      8      C    -0.59105074     1.83882860     0.95549341       adf.R=1.700
      9      C    -0.99371773     0.16152150    -1.37785754       adf.R=1.700
     10      C    -0.80163180    -1.53203869     0.44250941       adf.R=1.700
     11      H     0.12337193    -0.15346641     2.65374995       adf.R=1.350
     12      H     1.63552625    -0.64155960     1.85844147       adf.R=1.350
     13      H     1.47251579     0.98360291     2.53524687       adf.R=1.350
     14      H    -0.86655154     2.35244115     0.03522040       adf.R=1.350
     15      H    -1.49537732     1.43513803     1.41688499       adf.R=1.350
     16      H    -0.15908258     2.56830044     1.64284705       adf.R=1.350
     17      H    -1.96697220     0.47556302    -0.99721393       adf.R=1.350
     18      H    -0.52473179     1.00975549    -1.88032541       adf.R=1.350
     19      H    -1.15312349    -0.62815039    -2.11389520       adf.R=1.350
     20      H    -1.67828245    -1.17223487     0.98636327       adf.R=1.350
     21      H    -1.13893486    -2.26358096    -0.29383094       adf.R=1.350
     22      H    -0.13330426    -2.03015377     1.14349398       adf.R=1.350
     23      C     4.76382857    -0.52747554    -0.35334116       adf.R=1.700
     24      C     5.61519249     0.26185459     0.66175328       adf.R=1.700
     25      H     4.48043085    -2.43450962    -1.28848750       adf.R=1.350
     26      H     4.99470697    -2.54267695     0.39817468       adf.R=1.350
     27      C     5.48517843    -0.31930290     2.06850135       adf.R=1.700
     28      C     5.14399638     1.71645346     0.67095608       adf.R=1.700
     29      H     6.16101340    -2.09965213    -0.86310098       adf.R=1.350
     30      C     5.12788354    -1.98717738    -0.53202844       adf.R=1.700
     31      H     4.86368831    -0.01772882    -1.32170937       adf.R=1.350
     32      C     7.07898998     0.22661952     0.21998251       adf.R=1.700
     33      H     5.76611457     2.30964327     1.34623917       adf.R=1.350
     34      H     4.10758342     1.79776106     1.00360725       adf.R=1.350
     35      H     5.21683134     2.15960337    -0.32739906       adf.R=1.350
     36      H     5.87461801    -1.33861959     2.12495878       adf.R=1.350
     37      H     4.44168323    -0.33130180     2.39067148       adf.R=1.350
     38      H     6.05226042     0.29047556     2.77707305       adf.R=1.350
     39      H     7.67471942     0.88278282     0.85964474       adf.R=1.350
     40      H     7.19195345     0.57525819    -0.81115367       adf.R=1.350
     41      H     7.50458886    -0.77653298     0.28956678       adf.R=1.350
 
Total System Charge             0.00000
Bonding info available!
 
 *** GOStep3 ***

 SOLVATION
-------------------------------------------

  The Delley construction of COSMO surface surface is calculated

       Division Level for Surface Triangles (NDIV)                  3
       Final Division Level for Triangles (NFDIV)                   1
       Radius of the Solvent (RSOL)                           3.17000 angstr
  Dielectric Constant (EPSL)                                  4.80000

       COSMO equation is solved iteratively-               conjugate-gradient

       Maximun of Iterations for Charges (NCIX)                  1000
       Criterion for Charge convergence (CCNV)                1.0E-08

  COSMO charges included variationally in SCF

       COSMO included at every SCF cycle

  Geometry-dependent empirical factor                         0.00000

  C-Matrix calculated in cspmtx

  In cspmtx, C-Matrix calculated using fitted potential

-------------------------------------------



 -------------------------------------------
  COSMO surface
  Area             =          980.743
  Volume           =         2237.621
  Number of Points =         2306
 -------------------------------------------



 ======================
 RI Hartree-Fock Scheme
 ======================
  
 Fit Set Quality     : GOOD
 Integration Quality : GOOD
 Threshold Quality   : GOOD
 Response Quality    : DEFAULT
 Is Range Separated  :  F
 
 RIHartreeFock Dependency: number of modified vectors:          30
 cosmo_calcen: 0.5 (esolb+esolc) (Hartrees) =   -0.007174

 Solvation energy (screening term,uncorrected) =     -4.501505 kcal/mol

 Solvation energy (dispersion and cavitation terms) =      1.470609 kcal/mol
 Solvation Energy Contributions (Hartrees)
          esola   esolb+esolc
     0.00717360   -0.01434721
 esol last cycle   -0.00717360
  
 Hartree-Fock exchange energy:   -118.551378466580     
 cosmo_calcen: 0.5 (esolb+esolc) (Hartrees) =   -0.007174

 Solvation energy (screening term,uncorrected) =     -4.501506 kcal/mol

 Solvation energy (dispersion and cavitation terms) =      1.470609 kcal/mol
 Solvation Energy Contributions (Hartrees)
          esola   esolb+esolc
     0.00717361   -0.01434721
 esol last cycle   -0.00717361
  pauli hf:                              3.132722680889120         85.2457          1965.81          8224.96
  elstat hf:                            -4.122375848147094       -112.1756         -2586.83        -10823.30

 Energy gradients wrt nuclear displacements
 ==========================================

     Atom      Cartesian (a.u./angstrom)
                 X         Y         Z
 ----------------------------------------
     1 O    -0.000375 -0.000081  0.001440
     2 P     0.001647  0.000077 -0.002243
     3 O    -0.000144  0.000165  0.001002
     4 O     0.000246 -0.000328  0.000233
     5 C     0.000059  0.000684  0.000794
     6 C    -0.000635 -0.000626 -0.000623
     7 C     0.000351  0.000273 -0.000082
     8 C    -0.000266  0.000034 -0.000174
     9 C    -0.000251 -0.000010 -0.000047
    10 C     0.000038 -0.000023  0.000161
    11 H    -0.000086 -0.000135  0.000071
    12 H     0.000447 -0.000360 -0.000050
    13 H     0.000164  0.000166  0.000142
    14 H    -0.000108  0.000168 -0.000207
    15 H    -0.000181 -0.000028  0.000076
    16 H     0.000113  0.000176  0.000113
    17 H    -0.000192  0.000091  0.000035
    18 H     0.000159  0.000122 -0.000220
    19 H    -0.000033 -0.000163 -0.000199
    20 H    -0.000175  0.000058  0.000097
    21 H    -0.000068 -0.000172 -0.000154
    22 H     0.000092 -0.000168  0.000174
    23 C    -0.000877  0.000037 -0.000330
    24 C    -0.000086  0.000214  0.000099
    25 H    -0.000129 -0.000157 -0.000180
    26 H    -0.000069 -0.000199  0.000264
    27 C     0.000050 -0.000008 -0.000111
    28 C     0.000041 -0.000019  0.000117
    29 H     0.000181  0.000032 -0.000036
    30 C    -0.000071 -0.000152 -0.000006
    31 H     0.000211  0.000157 -0.000256
    32 C    -0.000111  0.000016 -0.000093
    33 H     0.000159  0.000159  0.000130
    34 H    -0.000271 -0.000017 -0.000032
    35 H    -0.000029  0.000091 -0.000233
    36 H     0.000097 -0.000222  0.000053
    37 H    -0.000310  0.000004  0.000153
    38 H     0.000081  0.000158  0.000184
    39 H     0.000124  0.000122  0.000143
    40 H     0.000063  0.000072 -0.000221
    41 H     0.000141 -0.000211  0.000017
 ----------------------------------------
 Mulliken charges used for AMS results%charges...

 dE(predicted):    -0.74074E-04, dE(actual):    -0.37396E-04, Trust radius:    0.200000, all in a.u.
 
----------------------------------------------------------------------
Geometry Convergence after Step   3       (Hartree/Angstrom,Angstrom)
----------------------------------------------------------------------
current energy                              -10.16756956 Hartree
energy change                      -0.00003740     0.00041000    T
constrained gradient max            0.00224061     0.00100000    F
constrained gradient rms            0.00037077     0.00066667    T
gradient max                        0.00224061
gradient rms                        0.00037077
cart. step max                      0.01953734     0.00100000    F
cart. step rms                      0.00491007     0.00066667    F
 
 
--------
Geometry
--------
Formula: C12H25O3P
Atoms
  Index Symbol   x (angstrom)   y (angstrom)   z (angstrom)
      1      O     3.38149087    -0.47826421     0.04500307       adf.R=1.517
      2      P     2.30604978     0.20835376    -0.97252646       adf.R=1.850
      3      O     1.51406505     1.30302414    -0.04142027       adf.R=1.517
      4      O     1.09584366    -0.90282092    -0.86545017       adf.R=1.517
      5      C     0.40339100     0.72764254     0.70112978       adf.R=1.700
      6      C    -0.11423034    -0.38196229    -0.25921601       adf.R=1.700
      7      C     0.92741175     0.18405346     2.02206035       adf.R=1.700
      8      C    -0.59354334     1.84059089     0.95204778       adf.R=1.700
      9      C    -0.99098445     0.16061405    -1.37837270       adf.R=1.700
     10      C    -0.80815217    -1.53084685     0.44433169       adf.R=1.700
     11      H     0.10383459    -0.14859521     2.65636407       adf.R=1.350
     12      H     1.61838391    -0.64481260     1.87122911       adf.R=1.350
     13      H     1.45820239     0.98241700     2.54336008       adf.R=1.350
     14      H    -0.86312122     2.35355358     0.02982769       adf.R=1.350
     15      H    -1.50102205     1.43964774     1.40937139       adf.R=1.350
     16      H    -0.16324930     2.56975584     1.64056601       adf.R=1.350
     17      H    -1.96522453     0.47562070    -1.00141654       adf.R=1.350
     18      H    -0.51954267     1.00818015    -1.87936027       adf.R=1.350
     19      H    -1.14839939    -0.62930632    -2.11437877       adf.R=1.350
     20      H    -1.68590281    -1.16887251     0.98473704       adf.R=1.350
     21      H    -1.14413239    -2.26268540    -0.29212334       adf.R=1.350
     22      H    -0.14300288    -2.02898100     1.14811805       adf.R=1.350
     23      C     4.76762107    -0.52720779    -0.35468446       adf.R=1.700
     24      C     5.61947060     0.26166730     0.66015493       adf.R=1.700
     25      H     4.48659365    -2.43327222    -1.29166233       adf.R=1.350
     26      H     5.00476703    -2.54245985     0.39352350       adf.R=1.350
     27      C     5.49138542    -0.32076689     2.06638176       adf.R=1.700
     28      C     5.14781453     1.71597760     0.67129789       adf.R=1.700
     29      H     6.16721451    -2.09541103    -0.86952733       adf.R=1.350
     30      C     5.13465819    -1.98559618    -0.53613957       adf.R=1.700
     31      H     4.86447464    -0.01590803    -1.32234786       adf.R=1.350
     32      C     7.08277799     0.22765632     0.21714600       adf.R=1.700
     33      H     5.77065673     2.30856663     1.34621252       adf.R=1.350
     34      H     4.11206160     1.79681417     1.00567179       adf.R=1.350
     35      H     5.21923223     2.16005766    -0.32660461       adf.R=1.350
     36      H     5.88106997    -1.33992396     2.12131181       adf.R=1.350
     37      H     4.44840831    -0.33330964     2.38962741       adf.R=1.350
     38      H     6.05918534     0.28841005     2.77469974       adf.R=1.350
     39      H     7.67862950     0.88370490     0.85660891       adf.R=1.350
     40      H     7.19448919     0.57697938    -0.81375522       adf.R=1.350
     41      H     7.50886102    -0.77521306     0.28569208       adf.R=1.350
 
Total System Charge             0.00000
Bonding info available!
 
 *** GOStep4 ***

 SOLVATION
-------------------------------------------

  The Delley construction of COSMO surface surface is calculated

       Division Level for Surface Triangles (NDIV)                  3
       Final Division Level for Triangles (NFDIV)                   1
       Radius of the Solvent (RSOL)                           3.17000 angstr
  Dielectric Constant (EPSL)                                  4.80000

       COSMO equation is solved iteratively-               conjugate-gradient

       Maximun of Iterations for Charges (NCIX)                  1000
       Criterion for Charge convergence (CCNV)                1.0E-08

  COSMO charges included variationally in SCF

       COSMO included at every SCF cycle

  Geometry-dependent empirical factor                         0.00000

  C-Matrix calculated in cspmtx

  In cspmtx, C-Matrix calculated using fitted potential

-------------------------------------------



 -------------------------------------------
  COSMO surface
  Area             =          980.166
  Volume           =         2236.074
  Number of Points =         2306
 -------------------------------------------



 ======================
 RI Hartree-Fock Scheme
 ======================
  
 Fit Set Quality     : GOOD
 Integration Quality : GOOD
 Threshold Quality   : GOOD
 Response Quality    : DEFAULT
 Is Range Separated  :  F
 
 RIHartreeFock Dependency: number of modified vectors:          30
 cosmo_calcen: 0.5 (esolb+esolc) (Hartrees) =   -0.007198

 Solvation energy (screening term,uncorrected) =     -4.516901 kcal/mol

 Solvation energy (dispersion and cavitation terms) =      1.469744 kcal/mol
 Solvation Energy Contributions (Hartrees)
          esola   esolb+esolc
     0.00719814   -0.01439628
 esol last cycle   -0.00719814
  
 Hartree-Fock exchange energy:   -118.553743283407     
 cosmo_calcen: 0.5 (esolb+esolc) (Hartrees) =   -0.007198

 Solvation energy (screening term,uncorrected) =     -4.516902 kcal/mol

 Solvation energy (dispersion and cavitation terms) =      1.469744 kcal/mol
 Solvation Energy Contributions (Hartrees)
          esola   esolb+esolc
     0.00719814   -0.01439628
 esol last cycle   -0.00719814
  pauli hf:                              3.139074238734867         85.4186          1969.80          8241.64
  elstat hf:                            -4.123665636814085       -112.2107         -2587.64        -10826.68

 Energy gradients wrt nuclear displacements
 ==========================================

     Atom      Cartesian (a.u./angstrom)
                 X         Y         Z
 ----------------------------------------
     1 O     0.000455  0.000008  0.000376
     2 P     0.000393 -0.000298 -0.000744
     3 O    -0.000172  0.000244  0.000092
     4 O    -0.000145  0.000121 -0.000203
     5 C     0.000253  0.000495  0.000404
     6 C    -0.000252 -0.000539 -0.000297
     7 C    -0.000264 -0.000119  0.000170
     8 C    -0.000024 -0.000035 -0.000029
     9 C    -0.000070  0.000047  0.000033
    10 C     0.000021  0.000020  0.000142
    11 H    -0.000056 -0.000046  0.000083
    12 H     0.000030 -0.000028 -0.000007
    13 H     0.000026  0.000092  0.000006
    14 H    -0.000015  0.000023 -0.000103
    15 H    -0.000054 -0.000020  0.000016
    16 H     0.000038  0.000079  0.000028
    17 H    -0.000053  0.000024  0.000011
    18 H     0.000091  0.000022 -0.000077
    19 H    -0.000002 -0.000086 -0.000053
    20 H    -0.000071  0.000023  0.000038
    21 H    -0.000022 -0.000071 -0.000046
    22 H     0.000053 -0.000031  0.000079
    23 C    -0.000567  0.000024 -0.000004
    24 C     0.000103  0.000046 -0.000011
    25 H    -0.000044 -0.000054 -0.000059
    26 H    -0.000044 -0.000060  0.000108
    27 C     0.000072 -0.000008 -0.000070
    28 C     0.000027  0.000015  0.000107
    29 H     0.000084  0.000009  0.000015
    30 C     0.000039 -0.000059  0.000044
    31 H     0.000150  0.000033 -0.000112
    32 C    -0.000049  0.000052  0.000016
    33 H     0.000065  0.000048  0.000021
    34 H    -0.000058 -0.000005 -0.000033
    35 H    -0.000009  0.000035 -0.000103
    36 H     0.000039 -0.000066  0.000021
    37 H    -0.000105  0.000015  0.000061
    38 H     0.000011  0.000077  0.000081
    39 H     0.000074  0.000038  0.000055
    40 H     0.000008  0.000025 -0.000062
    41 H     0.000043 -0.000089  0.000009
 ----------------------------------------
 Mulliken charges used for AMS results%charges...

 dE(predicted):    -0.11328E-04, dE(actual):    -0.14860E-04, Trust radius:    0.200000, all in a.u.
 
----------------------------------------------------------------------
Geometry Convergence after Step   4       (Hartree/Angstrom,Angstrom)
----------------------------------------------------------------------
current energy                              -10.16758442 Hartree
energy change                      -0.00001486     0.00041000    T
constrained gradient max            0.00074222     0.00100000    T
constrained gradient rms            0.00015579     0.00066667    T
gradient max                        0.00074222
gradient rms                        0.00015579
cart. step max                      0.00581713     0.00100000    F
cart. step rms                      0.00221805     0.00066667    F
 
 
--------
Geometry
--------
Formula: C12H25O3P
Atoms
  Index Symbol   x (angstrom)   y (angstrom)   z (angstrom)
      1      O     3.38158536    -0.48194293     0.04307468       adf.R=1.517
      2      P     2.30572956     0.20657888    -0.97234603       adf.R=1.850
      3      O     1.51563771     1.30182759    -0.04099618       adf.R=1.517
      4      O     1.09525563    -0.90395178    -0.86482225       adf.R=1.517
      5      C     0.40508744     0.72684317     0.70167194       adf.R=1.700
      6      C    -0.11400615    -0.38144526    -0.25877060       adf.R=1.700
      7      C     0.93064057     0.18236714     2.02146474       adf.R=1.700
      8      C    -0.59049920     1.84049541     0.95439610       adf.R=1.700
      9      C    -0.99003809     0.16251799    -1.37769795       adf.R=1.700
     10      C    -0.80960320    -1.52984699     0.44368211       adf.R=1.700
     11      H     0.10763663    -0.14962332     2.65672688       adf.R=1.350
     12      H     1.62052801    -0.64707114     1.86934668       adf.R=1.350
     13      H     1.46288378     0.97996723     2.54231813       adf.R=1.350
     14      H    -0.86037338     2.35450319     0.03292439       adf.R=1.350
     15      H    -1.49792626     1.44004584     1.41212219       adf.R=1.350
     16      H    -0.15894376     2.56858358     1.64314601       adf.R=1.350
     17      H    -1.96412937     0.47771536    -1.00068133       adf.R=1.350
     18      H    -0.51816341     1.01025781    -1.87781299       adf.R=1.350
     19      H    -1.14779368    -0.62667111    -2.11431826       adf.R=1.350
     20      H    -1.68681942    -1.16706724     0.98428772       adf.R=1.350
     21      H    -1.14654175    -2.26053364    -0.29337410       adf.R=1.350
     22      H    -0.14526144    -2.02948048     1.14705764       adf.R=1.350
     23      C     4.76815130    -0.52909266    -0.35561242       adf.R=1.700
     24      C     5.61741462     0.26167644     0.65968636       adf.R=1.700
     25      H     4.49025104    -2.43586663    -1.29167503       adf.R=1.350
     26      H     5.00876258    -2.54343362     0.39338470       adf.R=1.350
     27      C     5.48744908    -0.31895809     2.06641806       adf.R=1.700
     28      C     5.14395978     1.71536007     0.66802092       adf.R=1.700
     29      H     6.17026263    -2.09519194    -0.86988591       adf.R=1.350
     30      C     5.13762237    -1.98683194    -0.53647915       adf.R=1.700
     31      H     4.86446941    -0.01786908    -1.32325508       adf.R=1.350
     32      C     7.08144685     0.22866179     0.21922139       adf.R=1.700
     33      H     5.76483960     2.30956452     1.34321432       adf.R=1.350
     34      H     4.10762028     1.79543934     1.00060102       adf.R=1.350
     35      H     5.21660870     2.15817554    -0.33027205       adf.R=1.350
     36      H     5.87770275    -1.33771045     2.12332918       adf.R=1.350
     37      H     4.44402142    -0.33178580     2.38788511       adf.R=1.350
     38      H     6.05371263     0.29151110     2.77474493       adf.R=1.350
     39      H     7.67528912     0.88656763     0.85852441       adf.R=1.350
     40      H     7.19448237     0.57628713    -0.81204402       adf.R=1.350
     41      H     7.50858490    -0.77350074     0.29028227       adf.R=1.350
 
Total System Charge             0.00000
Bonding info available!
 
 *** GOStep5 ***

 SOLVATION
-------------------------------------------

  The Delley construction of COSMO surface surface is calculated

       Division Level for Surface Triangles (NDIV)                  3
       Final Division Level for Triangles (NFDIV)                   1
       Radius of the Solvent (RSOL)                           3.17000 angstr
  Dielectric Constant (EPSL)                                  4.80000

       COSMO equation is solved iteratively-               conjugate-gradient

       Maximun of Iterations for Charges (NCIX)                  1000
       Criterion for Charge convergence (CCNV)                1.0E-08

  COSMO charges included variationally in SCF

       COSMO included at every SCF cycle

  Geometry-dependent empirical factor                         0.00000

  C-Matrix calculated in cspmtx

  In cspmtx, C-Matrix calculated using fitted potential

-------------------------------------------



 -------------------------------------------
  COSMO surface
  Area             =          980.689
  Volume           =         2237.255
  Number of Points =         2308
 -------------------------------------------



 ======================
 RI Hartree-Fock Scheme
 ======================
  
 Fit Set Quality     : GOOD
 Integration Quality : GOOD
 Threshold Quality   : GOOD
 Response Quality    : DEFAULT
 Is Range Separated  :  F
 
 RIHartreeFock Dependency: number of modified vectors:          30
 cosmo_calcen: 0.5 (esolb+esolc) (Hartrees) =   -0.007205

 Solvation energy (screening term,uncorrected) =     -4.520987 kcal/mol

 Solvation energy (dispersion and cavitation terms) =      1.470528 kcal/mol
 Solvation Energy Contributions (Hartrees)
          esola   esolb+esolc
     0.00720465   -0.01440930
 esol last cycle   -0.00720465
  
 Hartree-Fock exchange energy:   -118.555569906513     
 cosmo_calcen: 0.5 (esolb+esolc) (Hartrees) =   -0.007205

 Solvation energy (screening term,uncorrected) =     -4.520987 kcal/mol

 Solvation energy (dispersion and cavitation terms) =      1.470528 kcal/mol
 Solvation Energy Contributions (Hartrees)
          esola   esolb+esolc
     0.00720465   -0.01440930
 esol last cycle   -0.00720465
  pauli hf:                              3.134905227047938         85.3051          1967.18          8230.69
  elstat hf:                            -4.124789869319745       -112.2412         -2588.34        -10829.63

 Energy gradients wrt nuclear displacements
 ==========================================

     Atom      Cartesian (a.u./angstrom)
                 X         Y         Z
 ----------------------------------------
     1 O     0.000433  0.000278  0.000102
     2 P    -0.000302 -0.000304  0.000158
     3 O    -0.000084  0.000172  0.000150
     4 O    -0.000155  0.000056 -0.000220
     5 C     0.000198  0.000216  0.000035
     6 C    -0.000034 -0.000240 -0.000178
     7 C    -0.000011  0.000029  0.000029
     8 C     0.000049  0.000033 -0.000035
     9 C    -0.000038 -0.000056  0.000038
    10 C     0.000049 -0.000044 -0.000046
    11 H    -0.000004  0.000029 -0.000027
    12 H    -0.000004  0.000044  0.000002
    13 H     0.000003  0.000029 -0.000001
    14 H     0.000007 -0.000010 -0.000017
    15 H     0.000011 -0.000001 -0.000012
    16 H     0.000001  0.000022 -0.000021
    17 H     0.000015 -0.000011 -0.000016
    18 H     0.000040 -0.000043 -0.000008
    19 H    -0.000004 -0.000033 -0.000005
    20 H     0.000000  0.000018 -0.000009
    21 H    -0.000007 -0.000026  0.000011
    22 H    -0.000009  0.000014 -0.000004
    23 C    -0.000285 -0.000138 -0.000004
    24 C     0.000046  0.000022  0.000052
    25 H     0.000009 -0.000015  0.000005
    26 H    -0.000035  0.000017  0.000012
    27 C     0.000042  0.000005 -0.000002
    28 C    -0.000040 -0.000007  0.000021
    29 H     0.000013 -0.000036  0.000032
    30 C     0.000115 -0.000070 -0.000015
    31 H     0.000050  0.000001 -0.000006
    32 C    -0.000014  0.000004 -0.000012
    33 H     0.000005 -0.000008 -0.000027
    34 H    -0.000019 -0.000014 -0.000038
    35 H    -0.000007 -0.000003 -0.000025
    36 H     0.000003  0.000029  0.000017
    37 H    -0.000026  0.000013  0.000015
    38 H    -0.000022  0.000031  0.000021
    39 H     0.000005 -0.000005  0.000012
    40 H    -0.000002 -0.000000  0.000009
    41 H     0.000010  0.000003  0.000007
 ----------------------------------------
 Mulliken charges used for AMS results%charges...

 dE(predicted):    -0.17362E-05, dE(actual):    -0.40101E-05, Trust radius:    0.200000, all in a.u.
 
----------------------------------------------------------------------
Geometry Convergence after Step   5       (Hartree/Angstrom,Angstrom)
----------------------------------------------------------------------
current energy                              -10.16758843 Hartree
energy change                      -0.00000401     0.00041000    T
constrained gradient max            0.00043265     0.00100000    T
constrained gradient rms            0.00008834     0.00066667    T
gradient max                        0.00043265
gradient rms                        0.00008834
cart. step max                      0.00556495     0.00100000    F
cart. step rms                      0.00230157     0.00066667    F
 
 
--------
Geometry
--------
Formula: C12H25O3P
Atoms
  Index Symbol   x (angstrom)   y (angstrom)   z (angstrom)
      1      O     3.38140984    -0.48522126     0.04243045       adf.R=1.517
      2      P     2.30580862     0.20584029    -0.97142035       adf.R=1.850
      3      O     1.51648614     1.30038431    -0.03878804       adf.R=1.517
      4      O     1.09523583    -0.90464938    -0.86353022       adf.R=1.517
      5      C     0.40547081     0.72519355     0.70319538       adf.R=1.700
      6      C    -0.11411972    -0.38093276    -0.25860008       adf.R=1.700
      7      C     0.93091947     0.17822281     2.02191804       adf.R=1.700
      8      C    -0.58943056     1.83905606     0.95757755       adf.R=1.700
      9      C    -0.98818571     0.16543046    -1.37787763       adf.R=1.700
     10      C    -0.81216548    -1.52891572     0.44202518       adf.R=1.700
     11      H     0.10776775    -0.15368247     2.65700081       adf.R=1.350
     12      H     1.61970784    -0.65182928     1.86834105       adf.R=1.350
     13      H     1.46426397     0.97440228     2.54373632       adf.R=1.350
     14      H    -0.85880213     2.35473572     0.03691843       adf.R=1.350
     15      H    -1.49721107     1.43847258     1.41444081       adf.R=1.350
     16      H    -0.15755299     2.56569687     1.64758750       adf.R=1.350
     17      H    -1.96254807     0.48061741    -1.00159528       adf.R=1.350
     18      H    -0.51530334     1.01373190    -1.87601426       adf.R=1.350
     19      H    -1.14554453    -0.62246487    -2.11591319       adf.R=1.350
     20      H    -1.68933223    -1.16538171     0.98215432       adf.R=1.350
     21      H    -1.14946721    -2.25830043    -0.29609231       adf.R=1.350
     22      H    -0.14926795    -2.03024362     1.14552888       adf.R=1.350
     23      C     4.76843386    -0.53030816    -0.35577007       adf.R=1.700
     24      C     5.61661971     0.26255437     0.65866769       adf.R=1.700
     25      H     4.49210891    -2.43861019    -1.28887350       adf.R=1.350
     26      H     5.01282783    -2.54321197     0.39566807       adf.R=1.350
     27      C     5.48521627    -0.31507370     2.06646819       adf.R=1.700
     28      C     5.14371012     1.71642582     0.66350288       adf.R=1.700
     29      H     6.17207872    -2.09495197    -0.86951854       adf.R=1.350
     30      C     5.13969430    -1.98766528    -0.53506557       adf.R=1.700
     31      H     4.86372058    -0.02003402    -1.32393744       adf.R=1.350
     32      C     7.08104707     0.22819539     0.21970127       adf.R=1.700
     33      H     5.76421068     2.31180630     1.33797649       adf.R=1.350
     34      H     4.10720394     1.79773019     0.99519500       adf.R=1.350
     35      H     5.21742757     2.15711771    -0.33560918       adf.R=1.350
     36      H     5.87453936    -1.33402334     2.12572277       adf.R=1.350
     37      H     4.44160402    -0.32634192     2.38719745       adf.R=1.350
     38      H     6.05160424     0.29634384     2.77382377       adf.R=1.350
     39      H     7.67427621     0.88782516     0.85774030       adf.R=1.350
     40      H     7.19512886     0.57293190    -0.81239386       adf.R=1.350
     41      H     7.50794544    -0.77380093     0.29396947       adf.R=1.350
 
Total System Charge             0.00000
Bonding info available!
 
 *** GOStep6 ***

 SOLVATION
-------------------------------------------

  The Delley construction of COSMO surface surface is calculated

       Division Level for Surface Triangles (NDIV)                  3
       Final Division Level for Triangles (NFDIV)                   1
       Radius of the Solvent (RSOL)                           3.17000 angstr
  Dielectric Constant (EPSL)                                  4.80000

       COSMO equation is solved iteratively-               conjugate-gradient

       Maximun of Iterations for Charges (NCIX)                  1000
       Criterion for Charge convergence (CCNV)                1.0E-08

  COSMO charges included variationally in SCF

       COSMO included at every SCF cycle

  Geometry-dependent empirical factor                         0.00000

  C-Matrix calculated in cspmtx

  In cspmtx, C-Matrix calculated using fitted potential

-------------------------------------------



 -------------------------------------------
  COSMO surface
  Area             =          980.086
  Volume           =         2236.322
  Number of Points =         2307
 -------------------------------------------



 ======================
 RI Hartree-Fock Scheme
 ======================
  
 Fit Set Quality     : GOOD
 Integration Quality : GOOD
 Threshold Quality   : GOOD
 Response Quality    : DEFAULT
 Is Range Separated  :  F
 
 RIHartreeFock Dependency: number of modified vectors:          30
 cosmo_calcen: 0.5 (esolb+esolc) (Hartrees) =   -0.007208

 Solvation energy (screening term,uncorrected) =     -4.523365 kcal/mol

 Solvation energy (dispersion and cavitation terms) =      1.469623 kcal/mol
 Solvation Energy Contributions (Hartrees)
          esola   esolb+esolc
     0.00720844   -0.01441688
 esol last cycle   -0.00720844
  
 Hartree-Fock exchange energy:   -118.556209796963     
 cosmo_calcen: 0.5 (esolb+esolc) (Hartrees) =   -0.007208

 Solvation energy (screening term,uncorrected) =     -4.523368 kcal/mol

 Solvation energy (dispersion and cavitation terms) =      1.469623 kcal/mol
 Solvation Energy Contributions (Hartrees)
          esola   esolb+esolc
     0.00720845   -0.01441689
 esol last cycle   -0.00720845
  pauli hf:                              3.133456209391220         85.2657          1966.27          8226.89
  elstat hf:                            -4.125251503845494       -112.2538         -2588.63        -10830.85

 Energy gradients wrt nuclear displacements
 ==========================================

     Atom      Cartesian (a.u./angstrom)
                 X         Y         Z
 ----------------------------------------
     1 O     0.000115  0.000106  0.000056
     2 P    -0.000292 -0.000104  0.000102
     3 O    -0.000022 -0.000032  0.000056
     4 O     0.000036  0.000050 -0.000068
     5 C     0.000049  0.000018 -0.000048
     6 C    -0.000018  0.000001 -0.000013
     7 C     0.000043  0.000011 -0.000052
     8 C    -0.000002  0.000023 -0.000046
     9 C     0.000018 -0.000041  0.000022
    10 C     0.000036 -0.000005 -0.000023
    11 H     0.000014  0.000040 -0.000052
    12 H    -0.000023  0.000053  0.000016
    13 H    -0.000020 -0.000008 -0.000022
    14 H     0.000008 -0.000023  0.000008
    15 H     0.000021  0.000019 -0.000025
    16 H    -0.000010 -0.000021 -0.000053
    17 H     0.000038 -0.000021 -0.000022
    18 H    -0.000005 -0.000053  0.000013
    19 H    -0.000000 -0.000003  0.000024
    20 H     0.000019 -0.000002 -0.000013
    21 H     0.000017  0.000020  0.000034
    22 H    -0.000021  0.000033 -0.000012
    23 C     0.000051 -0.000105 -0.000023
    24 C     0.000021  0.000014  0.000044
    25 H     0.000034 -0.000002  0.000031
    26 H    -0.000019  0.000041 -0.000019
    27 C     0.000019  0.000001  0.000028
    28 C    -0.000021  0.000034  0.000001
    29 H    -0.000014 -0.000017  0.000048
    30 C     0.000021 -0.000015  0.000010
    31 H    -0.000036 -0.000031  0.000051
    32 C    -0.000022 -0.000014 -0.000012
    33 H    -0.000014 -0.000015 -0.000045
    34 H     0.000036 -0.000005 -0.000029
    35 H    -0.000001 -0.000016  0.000012
    36 H    -0.000007  0.000058  0.000015
    37 H     0.000025  0.000012 -0.000015
    38 H    -0.000030  0.000008 -0.000017
    39 H    -0.000023 -0.000023 -0.000007
    40 H    -0.000007 -0.000011  0.000039
    41 H    -0.000014  0.000027  0.000004
 ----------------------------------------
 Mulliken charges used for AMS results%charges...

 dE(predicted):    -0.94868E-06, dE(actual):    -0.28904E-05, Trust radius:    0.200000, all in a.u.
 
----------------------------------------------------------------------
Geometry Convergence after Step   6       (Hartree/Angstrom,Angstrom)
----------------------------------------------------------------------
current energy                              -10.16759132 Hartree
energy change                      -0.00000289     0.00041000    T
constrained gradient max            0.00029444     0.00100000    T
constrained gradient rms            0.00004269     0.00066667    T
gradient max                        0.00029444
gradient rms                        0.00004269
cart. step max                      0.00515210     0.00100000    F
cart. step rms                      0.00221057     0.00066667    F
 
 
--------
Geometry
--------
Formula: C12H25O3P
Atoms
  Index Symbol   x (angstrom)   y (angstrom)   z (angstrom)
      1      O     3.38158694    -0.48908689     0.04168267       adf.R=1.517
      2      P     2.30625834     0.20429613    -0.97082607       adf.R=1.850
      3      O     1.51804782     1.29857934    -0.03687450       adf.R=1.517
      4      O     1.09489929    -0.90557488    -0.86266781       adf.R=1.517
      5      C     0.40634763     0.72374599     0.70465915       adf.R=1.700
      6      C    -0.11426359    -0.38046505    -0.25839914       adf.R=1.700
      7      C     0.93114325     0.17466431     2.02278545       adf.R=1.700
      8      C    -0.58732630     1.83841938     0.96034217       adf.R=1.700
      9      C    -0.98652196     0.16833927    -1.37795933       adf.R=1.700
     10      C    -0.81484257    -1.52795166     0.44058319       adf.R=1.700
     11      H     0.10763789    -0.15666821     2.65775044       adf.R=1.350
     12      H     1.61865574    -0.65628624     1.86821824       adf.R=1.350
     13      H     1.46576786     0.96952668     2.54531467       adf.R=1.350
     14      H    -0.85591563     2.35561855     0.04028726       adf.R=1.350
     15      H    -1.49567851     1.43823279     1.41643999       adf.R=1.350
     16      H    -0.15482570     2.56368082     1.65143017       adf.R=1.350
     17      H    -1.96096627     0.48406560    -1.00228279       adf.R=1.350
     18      H    -0.51230374     1.01682173    -1.87454433       adf.R=1.350
     19      H    -1.14395949    -0.61845073    -2.11716598       adf.R=1.350
     20      H    -1.69174463    -1.16342717     0.98048763       adf.R=1.350
     21      H    -1.15293087    -2.25599945    -0.29850806       adf.R=1.350
     22      H    -0.15331809    -2.03118861     1.14404298       adf.R=1.350
     23      C     4.76893481    -0.53208709    -0.35617697       adf.R=1.700
     24      C     5.61563478     0.26311989     0.65760684       adf.R=1.700
     25      H     4.49460844    -2.44202696    -1.28637723       adf.R=1.350
     26      H     5.01761311    -2.54367228     0.39767112       adf.R=1.350
     27      C     5.48319010    -0.31209518     2.06630254       adf.R=1.700
     28      C     5.14168509     1.71666413     0.65947380       adf.R=1.700
     29      H     6.17451814    -2.09503349    -0.86950631       adf.R=1.350
     30      C     5.14235766    -1.98905403    -0.53393109       adf.R=1.700
     31      H     4.86347087    -0.02265232    -1.32486260       adf.R=1.350
     32      C     7.08058385     0.22908952     0.22021901       adf.R=1.700
     33      H     5.76102236     2.31364253     1.33363191       adf.R=1.350
     34      H     4.10478572     1.79786515     0.99004291       adf.R=1.350
     35      H     5.21615734     2.15573256    -0.34030059       adf.R=1.350
     36      H     5.87245437    -1.33096614     2.12758635       adf.R=1.350
     37      H     4.43934689    -0.32280785     2.38629215       adf.R=1.350
     38      H     6.04912523     0.30052778     2.77299126       adf.R=1.350
     39      H     7.67252213     0.89089048     0.85722365       adf.R=1.350
     40      H     7.19543850     0.57136812    -0.81262480       adf.R=1.350
     41      H     7.50834018    -0.77232461     0.29743060       adf.R=1.350
 
Total System Charge             0.00000
Bonding info available!
 
 *** GOStep7 ***

 SOLVATION
-------------------------------------------

  The Delley construction of COSMO surface surface is calculated

       Division Level for Surface Triangles (NDIV)                  3
       Final Division Level for Triangles (NFDIV)                   1
       Radius of the Solvent (RSOL)                           3.17000 angstr
  Dielectric Constant (EPSL)                                  4.80000

       COSMO equation is solved iteratively-               conjugate-gradient

       Maximun of Iterations for Charges (NCIX)                  1000
       Criterion for Charge convergence (CCNV)                1.0E-08

  COSMO charges included variationally in SCF

       COSMO included at every SCF cycle

  Geometry-dependent empirical factor                         0.00000

  C-Matrix calculated in cspmtx

  In cspmtx, C-Matrix calculated using fitted potential

-------------------------------------------



 -------------------------------------------
  COSMO surface
  Area             =          980.235
  Volume           =         2235.884
  Number of Points =         2306
 -------------------------------------------



 ======================
 RI Hartree-Fock Scheme
 ======================
  
 Fit Set Quality     : GOOD
 Integration Quality : GOOD
 Threshold Quality   : GOOD
 Response Quality    : DEFAULT
 Is Range Separated  :  F
 
 RIHartreeFock Dependency: number of modified vectors:          30
 cosmo_calcen: 0.5 (esolb+esolc) (Hartrees) =   -0.007215

 Solvation energy (screening term,uncorrected) =     -4.527363 kcal/mol

 Solvation energy (dispersion and cavitation terms) =      1.469846 kcal/mol
 Solvation Energy Contributions (Hartrees)
          esola   esolb+esolc
     0.00721481   -0.01442962
 esol last cycle   -0.00721481
  
 Hartree-Fock exchange energy:   -118.555913502804     
 cosmo_calcen: 0.5 (esolb+esolc) (Hartrees) =   -0.007215

 Solvation energy (screening term,uncorrected) =     -4.527364 kcal/mol

 Solvation energy (dispersion and cavitation terms) =      1.469846 kcal/mol
 Solvation Energy Contributions (Hartrees)
          esola   esolb+esolc
     0.00721481   -0.01442963
 esol last cycle   -0.00721481
  pauli hf:                              3.132475233417804         85.2390          1965.66          8224.31
  elstat hf:                            -4.125130047228858       -112.2505         -2588.56        -10830.53

 Energy gradients wrt nuclear displacements
 ==========================================

     Atom      Cartesian (a.u./angstrom)
                 X         Y         Z
 ----------------------------------------
     1 O    -0.000036  0.000032  0.000126
     2 P    -0.000067  0.000029 -0.000065
     3 O     0.000031 -0.000073 -0.000040
     4 O     0.000065  0.000012  0.000007
     5 C    -0.000037 -0.000127 -0.000049
     6 C    -0.000038  0.000121  0.000094
     7 C     0.000001  0.000029 -0.000022
     8 C    -0.000002  0.000006 -0.000015
     9 C     0.000048 -0.000041 -0.000004
    10 C    -0.000002  0.000003 -0.000004
    11 H     0.000008  0.000029 -0.000013
    12 H    -0.000020  0.000038  0.000008
    13 H    -0.000015 -0.000001 -0.000017
    14 H     0.000006 -0.000017 -0.000007
    15 H     0.000009  0.000017 -0.000023
    16 H    -0.000008 -0.000009 -0.000042
    17 H     0.000020 -0.000021 -0.000017
    18 H    -0.000015 -0.000033 -0.000005
    19 H     0.000000 -0.000006  0.000012
    20 H     0.000007 -0.000008 -0.000004
    21 H     0.000014  0.000012  0.000026
    22 H    -0.000015  0.000020 -0.000003
    23 C     0.000169 -0.000051 -0.000058
    24 C    -0.000001 -0.000015 -0.000002
    25 H     0.000028 -0.000005  0.000032
    26 H    -0.000016  0.000012  0.000000
    27 C    -0.000014  0.000016  0.000022
    28 C    -0.000016  0.000012 -0.000028
    29 H    -0.000016 -0.000019  0.000042
    30 C    -0.000020  0.000004  0.000013
    31 H    -0.000045 -0.000019  0.000044
    32 C     0.000006 -0.000002  0.000006
    33 H    -0.000012 -0.000002 -0.000029
    34 H     0.000011 -0.000003 -0.000014
    35 H    -0.000001 -0.000018  0.000005
    36 H    -0.000005  0.000037  0.000013
    37 H     0.000014  0.000012 -0.000009
    38 H    -0.000019  0.000016 -0.000013
    39 H    -0.000010 -0.000010 -0.000004
    40 H    -0.000000 -0.000008  0.000024
    41 H    -0.000007  0.000029  0.000011
 ----------------------------------------
 Mulliken charges used for AMS results%charges...

 dE(predicted):    -0.34668E-06, dE(actual):    -0.14274E-05, Trust radius:    0.200000, all in a.u.
 
----------------------------------------------------------------------
Geometry Convergence after Step   7       (Hartree/Angstrom,Angstrom)
----------------------------------------------------------------------
current energy                              -10.16759275 Hartree
energy change                      -0.00000143     0.00041000    T
constrained gradient max            0.00016716     0.00100000    T
constrained gradient rms            0.00003389     0.00066667    T
gradient max                        0.00016716
gradient rms                        0.00003389
cart. step max                      0.00232101     0.00100000    F
cart. step rms                      0.00074630     0.00066667    F
 
 
--------
Geometry
--------
Formula: C12H25O3P
Atoms
  Index Symbol   x (angstrom)   y (angstrom)   z (angstrom)
      1      O     3.38142340    -0.49047908     0.04119846       adf.R=1.517
      2      P     2.30624980     0.20389009    -0.97071186       adf.R=1.850
      3      O     1.51840560     1.29812842    -0.03635074       adf.R=1.517
      4      O     1.09460203    -0.90578038    -0.86274768       adf.R=1.517
      5      C     0.40653999     0.72331555     0.70500752       adf.R=1.700
      6      C    -0.11442095    -0.38034902    -0.25849908       adf.R=1.700
      7      C     0.93132209     0.17340421     2.02282453       adf.R=1.700
      8      C    -0.58680340     1.83817821     0.96123635       adf.R=1.700
      9      C    -0.98639515     0.16928439    -1.37793172       adf.R=1.700
     10      C    -0.81557077    -1.52778179     0.44005489       adf.R=1.700
     11      H     0.10779693    -0.15789498     2.65780721       adf.R=1.350
     12      H     1.61846525    -0.65778764     1.86774185       adf.R=1.350
     13      H     1.46637775     0.96781930     2.54562078       adf.R=1.350
     14      H    -0.85520550     2.35594097     0.04142318       adf.R=1.350
     15      H    -1.49530551     1.43800010     1.41706740       adf.R=1.350
     16      H    -0.15414706     2.56297611     1.65273799       adf.R=1.350
     17      H    -1.96082899     0.48508286    -1.00224135       adf.R=1.350
     18      H    -0.51187613     1.01790224    -1.87403083       adf.R=1.350
     19      H    -1.14391135    -0.61710960    -2.11756130       adf.R=1.350
     20      H    -1.69225584    -1.16298520     0.98014329       adf.R=1.350
     21      H    -1.15409343    -2.25538391    -0.29930032       adf.R=1.350
     22      H    -0.15427984    -2.03165491     1.14330773       adf.R=1.350
     23      C     4.76892806    -0.53249588    -0.35623400       adf.R=1.700
     24      C     5.61522206     0.26340100     0.65736476       adf.R=1.700
     25      H     4.49546737    -2.44319399    -1.28513348       adf.R=1.350
     26      H     5.01993412    -2.54350327     0.39859139       adf.R=1.350
     27      C     5.48238122    -0.31094553     2.06639236       adf.R=1.700
     28      C     5.14150862     1.71703389     0.65825790       adf.R=1.700
     29      H     6.17542748    -2.09449602    -0.86975656       adf.R=1.350
     30      C     5.14342259    -1.98926233    -0.53342674       adf.R=1.700
     31      H     4.86341216    -0.02337995    -1.32511905       adf.R=1.350
     32      C     7.08030964     0.22889428     0.22040995       adf.R=1.700
     33      H     5.76069419     2.31428291     1.33234082       adf.R=1.350
     34      H     4.10450164     1.79864805     0.98843400       adf.R=1.350
     35      H     5.21643534     2.15556316    -0.34173257       adf.R=1.350
     36      H     5.87110297    -1.33000328     2.12829784       adf.R=1.350
     37      H     4.43851215    -0.32092113     2.38635242       adf.R=1.350
     38      H     6.04862568     0.30177695     2.77276780       adf.R=1.350
     39      H     7.67209810     0.89137122     0.85686889       adf.R=1.350
     40      H     7.19546406     0.57006084    -0.81278421       adf.R=1.350
     41      H     7.50800061    -0.77247497     0.29880069       adf.R=1.350
 
Total System Charge             0.00000
Bonding info available!
 
 *** GOStep8 ***

 SOLVATION
-------------------------------------------

  The Delley construction of COSMO surface surface is calculated

       Division Level for Surface Triangles (NDIV)                  3
       Final Division Level for Triangles (NFDIV)                   1
       Radius of the Solvent (RSOL)                           3.17000 angstr
  Dielectric Constant (EPSL)                                  4.80000

       COSMO equation is solved iteratively-               conjugate-gradient

       Maximun of Iterations for Charges (NCIX)                  1000
       Criterion for Charge convergence (CCNV)                1.0E-08

  COSMO charges included variationally in SCF

       COSMO included at every SCF cycle

  Geometry-dependent empirical factor                         0.00000

  C-Matrix calculated in cspmtx

  In cspmtx, C-Matrix calculated using fitted potential

-------------------------------------------



 -------------------------------------------
  COSMO surface
  Area             =          980.288
  Volume           =         2234.986
  Number of Points =         2307
 -------------------------------------------



 ======================
 RI Hartree-Fock Scheme
 ======================
  
 Fit Set Quality     : GOOD
 Integration Quality : GOOD
 Threshold Quality   : GOOD
 Response Quality    : DEFAULT
 Is Range Separated  :  F
 
 RIHartreeFock Dependency: number of modified vectors:          30
 cosmo_calcen: 0.5 (esolb+esolc) (Hartrees) =   -0.007216

 Solvation energy (screening term,uncorrected) =     -4.528399 kcal/mol

 Solvation energy (dispersion and cavitation terms) =      1.469926 kcal/mol
 Solvation Energy Contributions (Hartrees)
          esola   esolb+esolc
     0.00721646   -0.01443293
 esol last cycle   -0.00721646
  
 Hartree-Fock exchange energy:   -118.555658576260     
 cosmo_calcen: 0.5 (esolb+esolc) (Hartrees) =   -0.007216

 Solvation energy (screening term,uncorrected) =     -4.528401 kcal/mol

 Solvation energy (dispersion and cavitation terms) =      1.469926 kcal/mol
 Solvation Energy Contributions (Hartrees)
          esola   esolb+esolc
     0.00721647   -0.01443293
 esol last cycle   -0.00721647
  pauli hf:                              3.132519738909235         85.2402          1965.69          8224.43
  elstat hf:                            -4.125018265886300       -112.2475         -2588.49        -10830.23

 Energy gradients wrt nuclear displacements
 ==========================================

     Atom      Cartesian (a.u./angstrom)
                 X         Y         Z
 ----------------------------------------
     1 O    -0.000109 -0.000020  0.000047
     2 P    -0.000013  0.000030 -0.000012
     3 O     0.000049 -0.000027 -0.000048
     4 O     0.000052 -0.000052  0.000015
     5 C    -0.000061 -0.000115 -0.000060
     6 C    -0.000008  0.000111  0.000082
     7 C     0.000005  0.000022 -0.000024
     8 C    -0.000006  0.000011 -0.000015
     9 C     0.000025 -0.000019 -0.000007
    10 C    -0.000003 -0.000001  0.000001
    11 H    -0.000002  0.000020  0.000002
    12 H    -0.000002  0.000011  0.000005
    13 H    -0.000007  0.000013 -0.000011
    14 H    -0.000001 -0.000005 -0.000023
    15 H     0.000000  0.000010 -0.000021
    16 H    -0.000006  0.000008 -0.000029
    17 H    -0.000002 -0.000014 -0.000014
    18 H    -0.000008 -0.000017 -0.000014
    19 H     0.000004 -0.000017  0.000003
    20 H     0.000002  0.000000  0.000001
    21 H     0.000005 -0.000004  0.000017
    22 H    -0.000004  0.000005  0.000013
    23 C     0.000126 -0.000010 -0.000021
    24 C    -0.000004 -0.000017 -0.000022
    25 H     0.000014 -0.000011  0.000019
    26 H    -0.000009  0.000003  0.000027
    27 C    -0.000010  0.000019  0.000016
    28 C     0.000001  0.000020 -0.000013
    29 H     0.000009 -0.000012  0.000037
    30 C    -0.000014  0.000033  0.000032
    31 H    -0.000018 -0.000018  0.000015
    32 C    -0.000013 -0.000007  0.000008
    33 H    -0.000002  0.000011 -0.000016
    34 H     0.000010  0.000006 -0.000007
    35 H    -0.000001 -0.000008 -0.000011
    36 H     0.000002  0.000014  0.000013
    37 H     0.000003  0.000013 -0.000002
    38 H    -0.000007  0.000021 -0.000001
    39 H     0.000001 -0.000000  0.000005
    40 H     0.000002 -0.000007  0.000005
    41 H    -0.000001  0.000001  0.000009
 ----------------------------------------
 Mulliken charges used for AMS results%charges...
 
----------------------------------------------------------------------
Geometry Convergence after Step   8       (Hartree/Angstrom,Angstrom)
----------------------------------------------------------------------
current energy                              -10.16759245 Hartree
energy change                       0.00000030     0.00041000    T
constrained gradient max            0.00012505     0.00100000    T
constrained gradient rms            0.00002682     0.00066667    T
gradient max                        0.00012505
gradient rms                        0.00002682
cart. step max                      0.00104749     0.00100000    F
cart. step rms                      0.00029227     0.00066667    T
 
 
--------
Geometry
--------
Formula: C12H25O3P
Atoms
  Index Symbol   x (angstrom)   y (angstrom)   z (angstrom)
      1      O     3.38145292    -0.49095325     0.04089403       adf.R=1.517
      2      P     2.30640681     0.20397800    -0.97070714       adf.R=1.850
      3      O     1.51868007     1.29811008    -0.03607700       adf.R=1.517
      4      O     1.09458914    -0.90554301    -0.86308312       adf.R=1.517
      5      C     0.40672620     0.72331877     0.70513498       adf.R=1.700
      6      C    -0.11432544    -0.38025039    -0.25858657       adf.R=1.700
      7      C     0.93134079     0.17311343     2.02292073       adf.R=1.700
      8      C    -0.58656289     1.83821372     0.96143913       adf.R=1.700
      9      C    -0.98644649     0.16961402    -1.37781754       adf.R=1.700
     10      C    -0.81540980    -1.52776889     0.43991689       adf.R=1.700
     11      H     0.10772480    -0.15822171     2.65777555       adf.R=1.350
     12      H     1.61840819    -0.65813621     1.86774358       adf.R=1.350
     13      H     1.46644487     0.96738957     2.54589659       adf.R=1.350
     14      H    -0.85482891     2.35614694     0.04167224       adf.R=1.350
     15      H    -1.49514720     1.43801685     1.41710388       adf.R=1.350
     16      H    -0.15393212     2.56287642     1.65311207       adf.R=1.350
     17      H    -1.96081238     0.48541673    -1.00194289       adf.R=1.350
     18      H    -0.51190501     1.01827390    -1.87384065       adf.R=1.350
     19      H    -1.14408706    -0.61666194    -2.11755943       adf.R=1.350
     20      H    -1.69195048    -1.16298641     0.98026029       adf.R=1.350
     21      H    -1.15415585    -2.25522919    -0.29948956       adf.R=1.350
     22      H    -0.15399740    -2.03181211     1.14294713       adf.R=1.350
     23      C     4.76895005    -0.53277628    -0.35630982       adf.R=1.700
     24      C     5.61501638     0.26337952     0.65731433       adf.R=1.700
     25      H     4.49544543    -2.44374078    -1.28469353       adf.R=1.350
     26      H     5.02098162    -2.54365327     0.39873732       adf.R=1.350
     27      C     5.48199050    -0.31063402     2.06647062       adf.R=1.700
     28      C     5.14117211     1.71696598     0.65781186       adf.R=1.700
     29      H     6.17556564    -2.09448643    -0.87039642       adf.R=1.350
     30      C     5.14373437    -1.98950866    -0.53344450       adf.R=1.700
     31      H     4.86354790    -0.02372603    -1.32524002       adf.R=1.350
     32      C     7.08019692     0.22892137     0.22061978       adf.R=1.700
     33      H     5.76007363     2.31438133     1.33201764       adf.R=1.350
     34      H     4.10403331     1.79855499     0.98761170       adf.R=1.350
     35      H     5.21640323     2.15534735    -0.34222865       adf.R=1.350
     36      H     5.87051338    -1.32975548     2.12865538       adf.R=1.350
     37      H     4.43810285    -0.32033139     2.38641071       adf.R=1.350
     38      H     6.04832189     0.30214291     2.77274168       adf.R=1.350
     39      H     7.67175348     0.89185851     0.85682200       adf.R=1.350
     40      H     7.19546286     0.56956297    -0.81274177       adf.R=1.350
     41      H     7.50805872    -0.77233597     0.29961707       adf.R=1.350
 
Total System Charge             0.00000
Bonding info available!
 
 *** GOStep9 ***

 SOLVATION
-------------------------------------------

  The Delley construction of COSMO surface surface is calculated

       Division Level for Surface Triangles (NDIV)                  3
       Final Division Level for Triangles (NFDIV)                   1
       Radius of the Solvent (RSOL)                           3.17000 angstr
  Dielectric Constant (EPSL)                                  4.80000

       COSMO equation is solved iteratively-               conjugate-gradient

       Maximun of Iterations for Charges (NCIX)                  1000
       Criterion for Charge convergence (CCNV)                1.0E-08

  COSMO charges included variationally in SCF

       COSMO included at every SCF cycle

  Geometry-dependent empirical factor                         0.00000

  C-Matrix calculated in cspmtx

  In cspmtx, C-Matrix calculated using fitted potential

-------------------------------------------



 -------------------------------------------
  COSMO surface
  Area             =          980.254
  Volume           =         2234.909
  Number of Points =         2307
 -------------------------------------------



 ======================
 RI Hartree-Fock Scheme
 ======================
  
 Fit Set Quality     : GOOD
 Integration Quality : GOOD
 Threshold Quality   : GOOD
 Response Quality    : DEFAULT
 Is Range Separated  :  F
 
 RIHartreeFock Dependency: number of modified vectors:          30
 cosmo_calcen: 0.5 (esolb+esolc) (Hartrees) =   -0.007216

 Solvation energy (screening term,uncorrected) =     -4.528242 kcal/mol

 Solvation energy (dispersion and cavitation terms) =      1.469875 kcal/mol
 Solvation Energy Contributions (Hartrees)
          esola   esolb+esolc
     0.00721621   -0.01443242
 esol last cycle   -0.00721621
  
 Hartree-Fock exchange energy:   -118.555544848554     
 cosmo_calcen: 0.5 (esolb+esolc) (Hartrees) =   -0.007216

 Solvation energy (screening term,uncorrected) =     -4.528244 kcal/mol

[...]
                                    7.65%     1 P:x            -5.051  0.67    11 C
                                   -6.97%     2 S               3.073  0.00    35 H
                                   -6.07%     2 S               3.073  0.00    34 H
                                    4.24%     1 S              -6.581  1.00    41 H
                                    4.12%     2 P:y             5.518  0.00    13 C
                                    4.03%     1 P:x            -5.051  0.67    14 C
                                   -3.72%     2 P:x             5.518  0.00    13 C
                                    3.45%     2 P:x             5.518  0.00    16 C
                                    3.38%     1 P:y            -5.051  0.67    13 C
                                    3.31%     1 P:y            -5.051  0.67     6 C
                                    2.93%     1 P:y            -5.051  0.67     5 C
                                    2.91%     1 P:x            -5.051  0.67     5 C
                                    2.41%     1 S              -6.581  1.00    18 H
                                    2.32%     2 P:z             5.518  0.00    16 C
                                    2.16%     1 S              -6.581  1.00    30 H
                                    2.02%     1 P:z            -5.051  0.67     6 C
                                    2.01%     1 P:x            -5.051  0.67    13 C
                                   -1.84%     2 S               3.073  0.00    29 H
                                    1.76%     1 S              -6.581  1.00    17 H
                                    1.75%     1 P:y            -5.051  0.67    16 C
                                   -1.53%     2 S               3.073  0.00    37 H
                                    1.49%     1 P:z            -5.051  0.67    10 C
                                    1.48%     2 S               3.073  0.00    20 H
                                    1.40%     2 S               3.073  0.00    19 H
                                    1.39%     2 S               3.073  0.00    21 H
                                    1.33%     1 P:z            -5.051  0.67     7 C
                                   -1.30%     2 P:z             5.518  0.00     6 C
                                    1.28%     1 P:z            -5.051  0.67     5 C
                                   -1.21%     2 S               3.073  0.00    17 H
                                    1.20%     1 P:x            -5.051  0.67    16 C
                                    1.15%     1 S              -6.581  1.00    29 H
                                    1.12%     1 P:z            -5.051  0.67    11 C
                                    1.10%     2 P:x             5.518  0.00     7 C
                                    1.10%     1 P:x            -5.051  0.67    12 C
                                    1.02%     1 P:x            -5.051  0.67     7 C
                                    1.00%     1 P:z            -5.051  0.67    13 C
                                    1.00%     2 P:z             5.518  0.00    14 C
       5.824  0.00   108 A        -10.49%     2 P:y             5.518  0.00     6 C
                                   10.47%     1 P:z            -5.051  0.67     5 C
                                    9.11%     1 S              -6.581  1.00    25 H
                                    8.18%     3 P:y             2.910  0.00     4 P
                                    7.68%     1 P:y            -5.051  0.67     6 C
                                    7.67%     1 S              -6.581  1.00    18 H
                                    7.39%     1 S              -6.581  1.00    37 H
                                    7.08%     1 P:y            -5.051  0.67    15 C
                                    6.14%     1 P:z            -5.051  0.67     9 C
                                    4.70%     1 P:x            -5.051  0.67    10 C
                                   -4.70%     2 S               3.073  0.00    25 H
                                    4.67%     1 S              -6.581  1.00    30 H
                                    3.84%     2 P:z             5.518  0.00     9 C
                                    3.74%     1 S              -6.581  1.00    28 H
                                    3.40%     2 S               3.073  0.00    22 H
                                    3.31%     2 S               3.073  0.00    21 H
                                    3.01%     1 S              -6.581  1.00    27 H
                                   -2.83%     3 S              11.281  0.00     7 C
                                   -2.69%     2 P:x             5.518  0.00    13 C
                                   -2.49%     2 S               3.073  0.00    26 H
                                    2.35%     2 S               3.073  0.00    24 H
                                   -2.21%     2 S               3.073  0.00    27 H
                                    2.20%     1 P:x            -5.051  0.67     5 C
                                    2.10%     2 P:x             5.518  0.00     8 C
                                   -2.08%     2 S               3.073  0.00    36 H
                                    1.98%     2 P:y             5.518  0.00     7 C
                                    1.96%     1 S              -6.581  1.00    29 H
                                    1.94%     1 P:z            -5.051  0.67     7 C
                                    1.88%     1 P:x            -5.051  0.67    13 C
                                    1.87%     3 P:z             2.910  0.00     4 P
                                    1.74%     1 S              -6.581  1.00    36 H
                                    1.70%     2 S             -15.858  2.00     7 C
                                    1.68%     1 S              -6.581  1.00    26 H
                                   -1.60%     2 S               3.073  0.00    19 H
                                    1.52%     2 S             -15.858  2.00     6 C
                                   -1.51%     2 S               3.073  0.00    30 H
                                   -1.48%     2 P:z             5.518  0.00     5 C
                                   -1.38%     2 S               3.073  0.00    37 H
                                    1.27%     1 P:y            -5.051  0.67    11 C
                                    1.27%     1 P:z            -5.051  0.67     8 C
                                    1.25%     1 P:x            -5.051  0.67    11 C
                                   -1.24%     2 S               3.073  0.00    28 H
                                    1.22%     1 P:y            -5.051  0.67     9 C
                                    1.20%     1 P:y            12.104  0.00    20 H
                                    1.14%     1 P:y            -5.051  0.67     8 C
                                    1.13%     1 S              -6.581  1.00    41 H
                                    1.12%     3 P:x             2.910  0.00     4 P
                                    1.08%     2 P:z             5.518  0.00    10 C
                                    1.03%     1 P:y            -5.051  0.67    13 C
                                    1.02%     1 P:x            -5.051  0.67    12 C
                                   -1.01%     3 S              11.281  0.00     6 C
       5.881  0.00   109 A         12.00%     1 P:x            -5.051  0.67    10 C
                                   -7.75%     2 P:z             5.518  0.00    12 C
                                    7.42%     1 P:z            -5.051  0.67     6 C
                                    6.78%     2 P:x             5.518  0.00    10 C
                                    6.62%     1 S              -6.581  1.00    26 H
                                    6.19%     2 P:x             5.518  0.00    15 C
                                    6.13%     1 S              -6.581  1.00    32 H
                                    6.07%     1 P:z            -5.051  0.67    12 C
                                   -5.61%     2 P:z             5.518  0.00     6 C
                                    5.42%     1 P:z            -5.051  0.67    13 C
                                    4.78%     1 P:z            -5.051  0.67     7 C
                                    4.70%     1 P:x            -5.051  0.67    15 C
                                    4.04%     1 P:z            -5.051  0.67    11 C
                                    3.79%     1 S              -6.581  1.00    38 H
                                    3.74%     2 S               3.073  0.00    30 H
                                   -3.59%     2 P:x             5.518  0.00    11 C
                                    3.34%     3 P:y             2.910  0.00     4 P
                                   -2.89%     2 P:z             5.518  0.00    11 C
                                    2.79%     2 P:z             5.518  0.00    13 C
                                   -2.78%     2 S               3.073  0.00    26 H
                                   -2.58%     2 S               3.073  0.00    38 H
                                    2.31%     1 P:y            -5.051  0.67     9 C
                                   -2.25%     2 S               3.073  0.00    36 H
                                    2.23%     1 P:y            -5.051  0.67     5 C
                                    2.17%     1 S              -6.581  1.00    36 H
                                    2.15%     1 P:x            -5.051  0.67    11 C
                                   -2.15%     2 S               3.073  0.00    32 H
                                    2.08%     2 P:y             5.518  0.00    11 C
                                    2.08%     1 P:y            -5.051  0.67    15 C
                                    1.99%     2 S               3.073  0.00    40 H
                                    1.84%     2 P:y             5.518  0.00    15 C
                                    1.79%     2 S             -15.858  2.00     5 C
                                    1.68%     1 P:z            -5.051  0.67     9 C
                                    1.55%     1 P:z            -5.051  0.67     8 C
                                   -1.55%     3 S              11.281  0.00     5 C
                                   -1.51%     2 P:y             5.518  0.00     6 C
                                   -1.49%     3 S              43.508  0.00    26 H
                                    1.48%     1 S              -6.581  1.00    17 H
                                    1.44%     2 S               3.073  0.00    31 H
                                    1.43%     1 S              -6.581  1.00    33 H
                                    1.40%     2 P:z             5.518  0.00     7 C
                                    1.37%     1 P:x            12.104  0.00    27 H
                                   -1.35%     2 S               3.073  0.00    22 H
                                    1.31%     2 P:y             5.518  0.00     8 C
                                    1.30%     1 P:x            -5.051  0.67    12 C
                                    1.28%     1 S              -6.581  1.00    18 H
                                   -1.20%     2 P:x             5.518  0.00     5 C
                                    1.18%     1 P:y            -5.051  0.67    12 C
                                   -1.11%     2 S               3.073  0.00    17 H
                                    1.08%     1 P:y            -5.051  0.67    13 C
                                    1.04%     2 P:y             5.518  0.00     9 C
                                    1.03%     2 P:y             5.518  0.00    12 C

 Energy gradients wrt nuclear displacements
 ==========================================

     Atom      Cartesian (a.u./angstrom)
                 X         Y         Z
 ----------------------------------------
     1 O    -0.000063 -0.000009 -0.000011
     2 P     0.000029  0.000011  0.000023
     3 O     0.000035 -0.000004 -0.000049
     4 O     0.000031 -0.000047  0.000007
     5 C    -0.000043 -0.000044 -0.000034
     6 C     0.000010  0.000045  0.000044
     7 C    -0.000003  0.000005 -0.000009
     8 C    -0.000010  0.000006 -0.000018
     9 C     0.000007 -0.000007 -0.000012
    10 C    -0.000004  0.000003  0.000015
    11 H    -0.000008  0.000015  0.000006
    12 H     0.000002  0.000001  0.000004
    13 H    -0.000002  0.000021 -0.000009
    14 H    -0.000004  0.000000 -0.000032
    15 H    -0.000006  0.000005 -0.000019
    16 H    -0.000002  0.000014 -0.000024
    17 H    -0.000008 -0.000011 -0.000009
    18 H     0.000001 -0.000012 -0.000017
    19 H     0.000006 -0.000025 -0.000004
    20 H    -0.000003  0.000005  0.000005
    21 H     0.000001 -0.000011  0.000010
    22 H     0.000004  0.000000  0.000022
    23 C     0.000051 -0.000006  0.000014
    24 C    -0.000012 -0.000009 -0.000018
    25 H     0.000005 -0.000020  0.000014
    26 H    -0.000006 -0.000001  0.000034
    27 C    -0.000003  0.000021  0.000015
    28 C     0.000005  0.000006 -0.000009
    29 H     0.000007 -0.000014  0.000029
    30 C    -0.000009  0.000014  0.000017
    31 H    -0.000005 -0.000014 -0.000001
    32 C    -0.000006  0.000001  0.000008
    33 H     0.000003  0.000014 -0.000011
    34 H    -0.000004  0.000006 -0.000010
    35 H    -0.000002 -0.000005 -0.000018
    36 H     0.000003  0.000010  0.000017
    37 H    -0.000006  0.000015  0.000007
    38 H    -0.000003  0.000023  0.000007
    39 H     0.000003  0.000006  0.000006
    40 H     0.000004 -0.000006 -0.000002
    41 H     0.000004 -0.000003  0.000013
 ----------------------------------------



 =======================================================================
 Electrostatic potential at the Nuclei due to electrons and other nuclei
 =======================================================================
  
         Atom                  Potential
         ----                  ---------
     1)   O                  22.34670924
     2)   P                  54.11539045
     3)   O                  22.35068502
     4)   O                  22.35478793
     5)   C                  14.69221046
     6)   C                  14.69256350
     7)   C                  14.77756431
     8)   C                  14.76986383
     9)   C                  14.77600975
    10)   C                  14.77060602
    11)   H                   1.10849033
    12)   H                   1.12278325
    13)   H                   1.11720531
    14)   H                   1.11355480
    15)   H                   1.09854779
    16)   H                   1.11179605
    17)   H                   1.10656537
    18)   H                   1.11831242
    19)   H                   1.11728225
    20)   H                   1.09912645
    21)   H                   1.11305538
    22)   H                   1.11479267
    23)   C                  14.70928810
    24)   C                  14.74936238
    25)   H                   1.12397433
    26)   H                   1.12180028
    27)   C                  14.78591715
    28)   C                  14.78962604
    29)   H                   1.11378337
    30)   C                  14.78043793
    31)   H                   1.12117464
    32)   C                  14.77839327
    33)   H                   1.12807837
    34)   H                   1.13853385
    35)   H                   1.13061722
    36)   H                   1.12675019
    37)   H                   1.13305829
    38)   H                   1.12597959
    39)   H                   1.12095185
    40)   H                   1.11993045
    41)   H                   1.12086099
 Mulliken charges used for AMS results%charges...


    =====================
     CALCULATION RESULTS
    =====================

Energy (hartree)           -10.16759200

Gradients (hartree/bohr)
  Index   Atom            d/dx            d/dy            d/dz
      1      O   -0.0000335945   -0.0000045589   -0.0000056525
      2      P    0.0000154948    0.0000057390    0.0000120727
      3      O    0.0000186545   -0.0000019850   -0.0000257297
      4      O    0.0000166433   -0.0000250966    0.0000037738
      5      C   -0.0000225154   -0.0000232776   -0.0000177358
      6      C    0.0000050833    0.0000237190    0.0000230393
      7      C   -0.0000018075    0.0000028556   -0.0000047323
      8      C   -0.0000050998    0.0000029934   -0.0000095160
      9      C    0.0000037805   -0.0000035350   -0.0000066018
     10      C   -0.0000021397    0.0000016814    0.0000078643
     11      H   -0.0000043996    0.0000077620    0.0000031387
     12      H    0.0000010493    0.0000005737    0.0000021921
     13      H   -0.0000008479    0.0000110763   -0.0000049397
     14      H   -0.0000019300    0.0000002095   -0.0000170678
     15      H   -0.0000032081    0.0000028833   -0.0000098160
     16      H   -0.0000010551    0.0000075683   -0.0000124778
     17      H   -0.0000040779   -0.0000059925   -0.0000049761
     18      H    0.0000002683   -0.0000064755   -0.0000089636
     19      H    0.0000031988   -0.0000133945   -0.0000018571
     20      H   -0.0000014884    0.0000024682    0.0000024929
     21      H    0.0000006967   -0.0000059886    0.0000052934
     22      H    0.0000019484    0.0000000309    0.0000113778
     23      C    0.0000267860   -0.0000031897    0.0000075264
     24      C   -0.0000063766   -0.0000045227   -0.0000093096
     25      H    0.0000027693   -0.0000104871    0.0000072787
     26      H   -0.0000032581   -0.0000005697    0.0000179205
     27      C   -0.0000016884    0.0000112454    0.0000077560
     28      C    0.0000028825    0.0000032745   -0.0000049369
     29      H    0.0000038478   -0.0000071692    0.0000151445
     30      C   -0.0000046789    0.0000073212    0.0000092540
     31      H   -0.0000028070   -0.0000074598   -0.0000005437
     32      C   -0.0000031251    0.0000006117    0.0000042566
     33      H    0.0000016371    0.0000072492   -0.0000059747
     34      H   -0.0000022520    0.0000031277   -0.0000052378
     35      H   -0.0000011508   -0.0000026940   -0.0000096786
     36      H    0.0000016552    0.0000050521    0.0000090384
     37      H   -0.0000031477    0.0000079468    0.0000035147
     38      H   -0.0000015035    0.0000123719    0.0000039232
     39      H    0.0000015374    0.0000034360    0.0000031502
     40      H    0.0000022084   -0.0000030817   -0.0000012798
     41      H    0.0000020106   -0.0000017189    0.0000070191


--------------
Atomic charges
--------------
  Index   Atom    Charge
      1      O   -0.6885
      2      P    1.0630
      3      O   -0.7059
      4      O   -0.7060
      5      C    0.2826
      6      C    0.3147
      7      C    0.4769
      8      C    0.4487
      9      C    0.4744
     10      C    0.4527
     11      H   -0.1456
     12      H   -0.1238
     13      H   -0.1667
     14      H   -0.1413
     15      H   -0.1358
     16      H   -0.1614
     17      H   -0.1432
     18      H   -0.1600
     19      H   -0.1642
     20      H   -0.1364
     21      H   -0.1601
     22      H   -0.1440
     23      C    0.5258
     24      C   -0.0138
     25      H   -0.1637
     26      H   -0.1343
     27      C    0.4732
     28      C    0.4660
     29      H   -0.1471
     30      C    0.4245
     31      H   -0.1401
     32      C    0.4744
     33      H   -0.1792
     34      H   -0.1065
     35      H   -0.1677
     36      H   -0.1716
     37      H   -0.1201
     38      H   -0.1700
     39      H   -0.1584
     40      H   -0.1611
     41      H   -0.1599


Dipole moment vector    (Debye):    -1.13159999   -0.25900450    1.62042301
              magnitude (Debye):     1.99333203


AMS application finished. Exiting.
NORMAL TERMINATION
     Total cpu time:    6043.55
  Total system time:      67.19
 Total elapsed time:    6559.93
