

 Parallel Execution: Process Information
 ==============================================================================
 Rank   Node Name                              NodeID   MyNodeRank  NodeMaster
    0   ubuntu-kch                                0          0          0
    1   ubuntu-kch                                0          1         -1
    2   ubuntu-kch                                0          2         -1
    3   ubuntu-kch                                0          3         -1
 ==============================================================================


May use up to 7570MB of RAM as shared memory on node 0

 *******************************************************************************
 *                                                                             *
 *  --------------------------------                                           *
 *   Amsterdam Modeling Suite (AMS)              2021.105                      *
 *  --------------------------------                                           *
 *                                               r97261 2021-09-16             *
 *                                                                             *
 *                                                                             *
 *                              =================                              *
 *                              |               |                              *
 *                              |     A M S     |                              *
 *                              |               |                              *
 *                              =================                              *
 *                                                                             *
 *                                                                             *
 *   Online information and documentation:  https://www.scm.com/support/       *
 *   E-mail:  support@scm.com   info@scm.com                                   *
 *                                                                             *
 *   Scientific publications using AMS results must be properly referenced     *
 *   See the User Manuals (or the web site) for recommended citations          *
 *   The terms and conditions of the End User License Agreement apply to       *
 *   the use of AMS, https://www.scm.com/license-terms/                        *
 *                                                                             *
 **********************  x86_64_linux_intel / intelmpi  ************************
 
 Licensed to: Dr. Miroslav Ilias / Matej Bel University, Department Chemistry, Fac. Natural Sciences / Banska Bystrica / SLOVAKIA
 SCM User ID: u17848
  
 AMS 2021.105  RunTime: Nov24-2021 09:05:27  ShM Nodes: 1  Procs: 4

 AMS jobname: ams
 AMS jobid  : 322793183

 Start   directory: /home/milias/work/projects/open-collection/theoretical_chemistry/projects/nmr_diplomovky/reference_compounds/phosphoric_acid/ams/pbe0_tz2p_good/cosmo-chcl3/srzora/geometry_optimization/tmp.milias.158608.0.noindex/
 Results directory: /home/milias/work/projects/open-collection/theoretical_chemistry/projects/nmr_diplomovky/reference_compounds/phosphoric_acid/ams/pbe0_tz2p_good/cosmo-chcl3/srzora/geometry_optimization/phosporic_acid.geopt_srzora_pbe0_tz2p_good_cosmo-chcl3.results/
 Scratch directory: /tmp/amstmp_ams_kid0.322793183/


 Communication costs MPI_COMM_WORLD:      0.258 usec per message,   0.0034 usec per 8-byte item
 Communication costs for intra-node:      0.262 usec per message,   0.0034 usec per 8-byte item

 RNG seed: -947435539 1937845559 -44064365 429618648 1507446431 -1185186825 1880670465 -831761925



                      ************************************************************************
                      *  ADF 2021.105  RunTime: Nov24-2021 09:05:28  ShM Nodes: 1  Procs: 4  *
                      ************************************************************************
  
       ***************************
       *  GEOMETRY OPTIMIZATION  *
       ***************************

Optimization Method                    Quasi Newton
Optimization Coordinates               Delocalized Coordinates
Optimize lattice                       F
 
 ------------------------------------------------------
 Convergence criteria (Hartree,Angstrom)
 ------------------------------------------------------
 Maximum gradient               0.001000000000
 Maximum rms gradient           0.000666666667
 Maximum step allowed           0.001000000000
 Maximum rms step allowed       0.000666666667
 Maximum energy change allowe   0.000080000000
 Maximum stress energy allowe   0.000500000000
 
Initial model Hessian                  Automatic Hessian
 
------------------------------------
Quasi-Newton Optimizer Parameters
------------------------------------
Hessian Update Method                  BFGS
Maximum number of steps                  250
First GDIIS cycle                          0
Maximum GDIIS vectors                      0
Trust radius (bohr)                        0.200000
Trust radius varies                        T
Constraints converged at all steps         T
Use projector                              T
 
 Rigid motions settings for: old optimizer
 Atomic rotations (x,y,z):     T T T
 Atomic translations (x,y,z):  T T T
 Tolerance:                   1.000000000000000E-006
 
--------
Geometry
--------
Formula: H3O4P
Atoms
  Index Symbol   x (angstrom)   y (angstrom)   z (angstrom)
      1      P    -0.00000000     0.00000000    -0.15893847       adf.R=1.850
      2      O    -1.37620245    -0.34502629     0.53088500       adf.R=1.517
      3      O     0.98690275    -1.01931314     0.53088500       adf.R=1.517
      4      O     0.38929969     1.36433943     0.53088500       adf.R=1.517
      5      O    -0.00000000     0.00000000    -1.62498648       adf.R=1.517
      6      H    -2.13980882     0.01390852     0.06375666       adf.R=1.350
      7      H     1.05785928    -1.86008306     0.06375666       adf.R=1.350
      8      H     1.08194954     1.84617454     0.06375666       adf.R=1.350
 
Total System Charge             0.00000
Bonding info available!
 
 
----------------
ADF Engine Input
----------------
 
 Basis
 Type TZ2P
 Core None
 End
 Save TAPE10
 XC
 Hybrid PBE0
 End
 Solvation
 Surf Delley
 Solv name=Chloroform cav0=0.0 cav1=0.0067639
 Charged method=CONJ
 C-Mat POT
 SCF VAR ALL
 CSMRSP
 End
 NumericalQuality Good
 

 Title: *** (NO TITLE) ***

Number of symmetry operators: 3
Schoenflies symbol:           C(3)
 Using automatic Hessian for delocalized coordinates.
 *** GOStep1 ***

 SOLVATION
-------------------------------------------

  The Delley construction of COSMO surface surface is calculated

       Division Level for Surface Triangles (NDIV)                  3
       Final Division Level for Triangles (NFDIV)                   1
       Radius of the Solvent (RSOL)                           3.17000 angstr
  Dielectric Constant (EPSL)                                  4.80000

       COSMO equation is solved iteratively-               conjugate-gradient

       Maximun of Iterations for Charges (NCIX)                  1000
       Criterion for Charge convergence (CCNV)                1.0E-08

  COSMO charges included variationally in SCF

       COSMO included at every SCF cycle

  Geometry-dependent empirical factor                         0.00000

  C-Matrix calculated in cspmtx

  In cspmtx, C-Matrix calculated using fitted potential

-------------------------------------------



 -------------------------------------------
  COSMO surface
  Area             =          351.737
  Volume           =          525.957
  Number of Points =          943
 -------------------------------------------



 ======================
 RI Hartree-Fock Scheme
 ======================
  
 Fit Set Quality     : GOOD
 Integration Quality : GOOD
 Threshold Quality   : GOOD
 Response Quality    : DEFAULT
 Is Range Separated  :  F
 
 RIHartreeFock Dependency: number of modified vectors:           3
 cosmo_calcen: 0.5 (esolb+esolc) (Hartrees) =   -0.020549

 Solvation energy (screening term,uncorrected) =    -12.894895 kcal/mol

 Solvation energy (dispersion and cavitation terms) =      0.527424 kcal/mol
 Solvation Energy Contributions (Hartrees)
          esola   esolb+esolc
     0.02054932   -0.04109864
 esol last cycle   -0.02054932
  
 Hartree-Fock exchange energy:   -56.9669119108400     
 cosmo_calcen: 0.5 (esolb+esolc) (Hartrees) =   -0.020549

 Solvation energy (screening term,uncorrected) =    -12.894896 kcal/mol

 Solvation energy (dispersion and cavitation terms) =      0.527424 kcal/mol
 Solvation Energy Contributions (Hartrees)
          esola   esolb+esolc
     0.02054932   -0.04109865
 esol last cycle   -0.02054932
  pauli hf:                              1.145512504663527         31.1710           718.82          3007.54
  elstat hf:                            -0.829751842391014        -22.5787          -520.68         -2178.51

 Energy gradients wrt nuclear displacements
 ==========================================

     Atom      Cartesian (a.u./angstrom)
                 X         Y         Z
 ----------------------------------------
     1 P    -0.000076 -0.000051  0.000547
     2 O    -0.000436  0.000051 -0.000280
     3 O     0.000192 -0.000425 -0.000319
     4 O     0.000301  0.000379 -0.000245
     5 O     0.000007  0.000005 -0.000393
     6 H    -0.000135 -0.000135  0.000219
     7 H     0.000223 -0.000014  0.000236
     8 H    -0.000076  0.000191  0.000234
 ----------------------------------------
 Mulliken charges used for AMS results%charges...
 
----------------------------------------------------------------------
Geometry Convergence after Step   1       (Hartree/Angstrom,Angstrom)
----------------------------------------------------------------------
current energy                               -2.25325149 Hartree
energy change                      -2.25325149     0.00008000    F
constrained gradient max            0.00054742     0.00100000    T
constrained gradient rms            0.00025942     0.00066667    T
gradient max                        0.00054742
gradient rms                        0.00025942
cart. step max                      0.00092530     0.00100000    T
cart. step rms                      0.00040855     0.00066667    T
 
 
--------
Geometry
--------
Formula: H3O4P
Atoms
  Index Symbol   x (angstrom)   y (angstrom)   z (angstrom)
      1      P    -0.00000000     0.00000000    -0.15905187       adf.R=1.850
      2      O    -1.37568756    -0.34506058     0.53120603       adf.R=1.517
      3      O     0.98667501    -1.01885009     0.53120603       adf.R=1.517
      4      O     0.38901255     1.36391067     0.53120603       adf.R=1.517
      5      O    -0.00000000     0.00000000    -1.62491617       adf.R=1.517
      6      H    -2.13888353     0.01400758     0.06344999       adf.R=1.350
      7      H     1.05731084    -1.85933126     0.06344999       adf.R=1.350
      8      H     1.08157268     1.84532368     0.06344999       adf.R=1.350
 
Total System Charge             0.00000
Bonding info available!
 
 *** GOStep2 ***

 SOLVATION
-------------------------------------------

  The Delley construction of COSMO surface surface is calculated

       Division Level for Surface Triangles (NDIV)                  3
       Final Division Level for Triangles (NFDIV)                   1
       Radius of the Solvent (RSOL)                           3.17000 angstr
  Dielectric Constant (EPSL)                                  4.80000

       COSMO equation is solved iteratively-               conjugate-gradient

       Maximun of Iterations for Charges (NCIX)                  1000
       Criterion for Charge convergence (CCNV)                1.0E-08

  COSMO charges included variationally in SCF

       COSMO included at every SCF cycle

  Geometry-dependent empirical factor                         0.00000

  C-Matrix calculated in cspmtx

  In cspmtx, C-Matrix calculated using fitted potential

-------------------------------------------



 -------------------------------------------
  COSMO surface
  Area             =          351.681
  Volume           =          525.883
  Number of Points =          943
 -------------------------------------------



 ======================
 RI Hartree-Fock Scheme
 ======================
  
 Fit Set Quality     : GOOD
 Integration Quality : GOOD
 Threshold Quality   : GOOD
 Response Quality    : DEFAULT
 Is Range Separated  :  F
 
 RIHartreeFock Dependency: number of modified vectors:           3
 cosmo_calcen: 0.5 (esolb+esolc) (Hartrees) =   -0.020534

 Solvation energy (screening term,uncorrected) =    -12.885577 kcal/mol

 Solvation energy (dispersion and cavitation terms) =      0.527340 kcal/mol
 Solvation Energy Contributions (Hartrees)
          esola   esolb+esolc
     0.02053447   -0.04106895
 esol last cycle   -0.02053447
  
 Hartree-Fock exchange energy:   -56.9675837690780     
 cosmo_calcen: 0.5 (esolb+esolc) (Hartrees) =   -0.020534

 Solvation energy (screening term,uncorrected) =    -12.885578 kcal/mol

 Solvation energy (dispersion and cavitation terms) =      0.527340 kcal/mol
 Solvation Energy Contributions (Hartrees)
          esola   esolb+esolc
     0.02053447   -0.04106895
 esol last cycle   -0.02053447
  pauli hf:                              1.145626123925107         31.1741           718.89          3007.84
  elstat hf:                            -0.830126645712324        -22.5889          -520.91         -2179.50

 Energy gradients wrt nuclear displacements
 ==========================================

     Atom      Cartesian (a.u./angstrom)
                 X         Y         Z
 ----------------------------------------
     1 P    -0.000078 -0.000047  0.000076
     2 O     0.000125  0.000070 -0.000127
     3 O    -0.000107  0.000046 -0.000154
     4 O     0.000037 -0.000117 -0.000093
     5 O     0.000007  0.000005 -0.000014
     6 H    -0.000024 -0.000059  0.000097
     7 H     0.000102  0.000047  0.000102
     8 H    -0.000064  0.000055  0.000112
 ----------------------------------------
 Mulliken charges used for AMS results%charges...
 
---------------------------------------------------------
Geometry Convergence after Step   2       ** CONVERGED **
---------------------------------------------------------
current energy                               -2.25325181 Hartree
energy change                      -0.00000032     0.00008000    T
constrained gradient max            0.00013393     0.00100000    T
constrained gradient rms            0.00007887     0.00066667    T
gradient max                        0.00013393
gradient rms                        0.00007887
cart. step max                      0.00046318     0.00100000    T
cart. step rms                      0.00023310     0.00066667    T
 
Geometry optimization converged

Optimized geometry:
 
--------
Geometry
--------
Formula: H3O4P
Atoms
  Index Symbol   x (angstrom)   y (angstrom)   z (angstrom)
      1      P    -0.00000000     0.00000000    -0.15905187       adf.R=1.850
      2      O    -1.37568756    -0.34506058     0.53120603       adf.R=1.517
      3      O     0.98667501    -1.01885009     0.53120603       adf.R=1.517
      4      O     0.38901255     1.36391067     0.53120603       adf.R=1.517
      5      O    -0.00000000     0.00000000    -1.62491617       adf.R=1.517
      6      H    -2.13888353     0.01400758     0.06344999       adf.R=1.350
      7      H     1.05731084    -1.85933126     0.06344999       adf.R=1.350
      8      H     1.08157268     1.84532368     0.06344999       adf.R=1.350
 
Total System Charge             0.00000
Bonding info available!
 
Performing a single point calculation on the final geometry ...

 *** adf ***



 ===========================
 A T T A C H E D   F I L E S
 ===========================
  
 Restart/tmp/amstmp_ams_kid0.322793183/GOStep2.rkf*** GOStep2 ***



 ===============================
 M O D E L   P A R A M E T E R S
 ===============================
  
 DENSITY FUNCTIONAL POTENTIAL (scf)
    Hybrid:                            PBE0                                    == Not Default ==

 SPIN  (restricted / unrestr.)
    Molecule:                          Restricted                               
    Fragments:                         Restricted                               

 OTHER ASPECTS
    Relativistic Corrections:          scalar (ZORA,MAPA)                       

    Nuclear Charge Density Model:      Point Charge Nuclei                      
    Core Treatment:                    Frozen Orbital(s)                        

    Hyperfine or Zeeman Interaction:   ---                                      

 SOLVATION
-------------------------------------------

  The Delley construction of COSMO surface surface is calculated

       Division Level for Surface Triangles (NDIV)                  3
       Final Division Level for Triangles (NFDIV)                   1
       Radius of the Solvent (RSOL)                           3.17000 angstr
  Dielectric Constant (EPSL)                                  4.80000

       COSMO equation is solved iteratively-               conjugate-gradient

       Maximun of Iterations for Charges (NCIX)                  1000
       Criterion for Charge convergence (CCNV)                1.0E-08

  COSMO charges included variationally in SCF

       COSMO included at every SCF cycle

  Geometry-dependent empirical factor                         0.00000

  C-Matrix calculated in cspmtx

  In cspmtx, C-Matrix calculated using fitted potential

-------------------------------------------




 ===============
 G E O M E T R Y  ***  3D  Molecule  ***
 ===============
  

 ATOMS
 =====                            X Y Z                    CHARGE                     RADIUS
                                (Angstrom)             Nucl     +Core       At.Mass (Angstrom)
                       --------------------------    ----------------       ------- ----------
    1  P              -0.0000    0.0000   -0.1591     15.00     15.00       30.9738    1.8500
    2  O              -1.3757   -0.3451    0.5312      8.00      8.00       15.9949    1.5170
    3  O               0.9867   -1.0189    0.5312      8.00      8.00       15.9949    1.5170
    4  O               0.3890    1.3639    0.5312      8.00      8.00       15.9949    1.5170
    5  O              -0.0000    0.0000   -1.6249      8.00      8.00       15.9949    1.5170
    6  H              -2.1389    0.0140    0.0634      1.00      1.00        1.0078    1.3500
    7  H               1.0573   -1.8593    0.0634      1.00      1.00        1.0078    1.3500
    8  H               1.0816    1.8453    0.0634      1.00      1.00        1.0078    1.3500


 FRAGMENTS
 =========                                     Atoms in this Fragment     Cart. coord.s (Angstrom)
                                               -------------------------------------------------------
    1  P                                                 1  P           -0.0000    0.0000   -0.1591
    2  O                                                 2  O           -1.3757   -0.3451    0.5312
    3  O                                                 3  O            0.9867   -1.0189    0.5312
    4  O                                                 4  O            0.3890    1.3639    0.5312
    5  O                                                 5  O           -0.0000    0.0000   -1.6249
    6  H                                                 6  H           -2.1389    0.0140    0.0634
    7  H                                                 7  H            1.0573   -1.8593    0.0634
    8  H                                                 8  H            1.0816    1.8453    0.0634


 Interatomic Distance Matrix (Angstrom)
 --------------------------------------

   1)     0.000
   2)     1.577   0.000
   3)     1.577   2.457   0.000
   4)     1.577   2.457   2.457   0.000
   5)     1.466   2.581   2.581   2.581   0.000
   6)     2.150   0.964   3.325   2.904   2.725   0.000
   7)     2.150   2.904   0.964   3.325   2.725   3.705   0.000
   8)     2.150   3.325   2.904   0.964   2.725   3.705   3.705   0.000

 Min. Distance =    0.9645
 Max. Distance =    3.7047



 =====================================
 S Y M M E T R Y ,   E L E C T R O N S
 =====================================
  
 Symmetry: NOSYM

 Irreducible Representations, including subspecies
 -------------------------------------------------
 A

 Symmetry is NOT used when fitting density


 Configuration of Valence Electrons
 ==================================
 ( determined in the SCF procedure )

 Total:   50

 Net Charge: 0 (Nuclei minus Electrons)

 Aufbau principle for MO occupations will be applied through SCF cycle no.     150
 Thereafter, the program will assign electrons to MOs that are spatially
 similar to the occupied MOs in a "reference" cycle ("KeepOrbitals").
 The reference cycle is always the PREVIOUS cycle: it will evolve with
 the SCF procedure.
1
 ***************************************************************************************************



                                      ****************************************
                                      *  B U I L D : (Fragments, Functions)  *
                                      ****************************************
  



 =======
 S F O s  ***  (Symmetrized Fragment Orbitals)  ***
 =======
  
 SFOs are linear combinations of (valence) Fragment Orbitals (FOs), such that the SFOs transform as the
 irreducible representations of the (molecular) symmetry group. Each SFO is therefore characterized by
 an irrep of the molecule and by a few (or only one) generating FOs.
 The SFOs constitute a symmetry-adapted basis for the Fock matrix. The MO eigenvector coefficients in
 this basis provide a direct interpretation of the MOs in terms of Frontier Orbital Theory.

 The SFOs are combined with auxiliary Core Functions (CFs) to ensure orthogonalization on the (frozen)
 Core Orbitals (COs). The Core-orthogonalized SFOs (CSFOs) constitute the true Fock basis.

 The FOs, and hence also the (C)SFOs are combinations of the elementary basis functions (BAS). The basis
 functions that participate in the description of the SFOs depend on the irrep. The indices of the
 involved functions are printed below for each irrep.
 (The complete list of primitive basis functions is printed in another section)

 Total nr. of (C)SFOs (summation over all irreps) :   171

 NOTE: a (C)SFO that is defined as a combination of more than one FO is usually NOT normalized.



                                       === A ===
 Nr. of SFOs :  171
 Cartesian basis functions that participate in this irrep (total number =   194) :
      1     2     3     4    11    12    13     5     8    14
     17    20     6     9    15    18    21     7    10    16
     19    22    23    24    25    26    27    28    29    30
     31    32    33    34    35    36    37    38    39    40
     41    42    43    44    47    50    45    48    51    46
     49    52    53    54    55    56    57    58    59    60
     61    62    63    64    65    66    67    68    69    70
     71    72    73    74    77    80    75    78    81    76
     79    82    83    84    85    86    87    88    89    90
     91    92    93    94    95    96    97    98    99   100
    101   102   103   104   107   110   105   108   111   106
    109   112   113   114   115   116   117   118   119   120
    121   122   123   124   125   126   127   128   129   130
    131   132   133   134   137   140   135   138   141   136
    139   142   143   144   145   146   147   148   149   150
    151   152   153   154   155   156   157   158   159   160
    161   162   163   164   165   166   167   168   169   170
    171   172   173   174   175   176   177   178   179   180
    181   182   183   184   185   186   187   188   189   190
    191   192   193   194

    SFO  (index         Fragment          Generating    Expansion in Fragment Orbitals
  indx  incl.CFs)   Occup   Orb.Energy   FragmentType  Coeff.   Orbital     on Fragment
 --------------------------------------------------------------------------------------
     1       1      2.000     -77.495 au  P             1.00      1 S               1
                        (   -2108.755 eV)
     2       2      2.000      -6.709 au  P             1.00      2 S               1
                        (    -182.551 eV)
     3       3      2.000      -0.580 au  P             1.00      3 S               1
                        (     -15.778 eV)
     4       4       --         0.140 au  P             1.00      4 S               1
                        (       3.817 eV)
     5       5       --         1.380 au  P             1.00      5 S               1
                        (      37.549 eV)
     6       6       --         9.471 au  P             1.00      6 S               1
                        (     257.719 eV)
     7       7       --       159.700 au  P             1.00      7 S               1
                        (    4345.659 eV)
     8       8      2.000      -4.804 au  P             1.00      1 P:x             1
                        (    -130.726 eV)
     9       9      1.000      -0.208 au  P             1.00      2 P:x             1
                        (      -5.658 eV)
    10      10       --         0.107 au  P             1.00      3 P:x             1
                        (       2.910 eV)
    11      11       --         0.924 au  P             1.00      4 P:x             1
                        (      25.153 eV)
    12      12       --        10.501 au  P             1.00      5 P:x             1
                        (     285.748 eV)
    13      13      2.000      -4.804 au  P             1.00      1 P:y             1
                        (    -130.726 eV)
    14      14      1.000      -0.208 au  P             1.00      2 P:y             1
                        (      -5.658 eV)
    15      15       --         0.107 au  P             1.00      3 P:y             1
                        (       2.910 eV)
    16      16       --         0.924 au  P             1.00      4 P:y             1
                        (      25.153 eV)
    17      17       --        10.501 au  P             1.00      5 P:y             1
                        (     285.748 eV)
    18      18      2.000      -4.804 au  P             1.00      1 P:z             1
                        (    -130.726 eV)
    19      19      1.000      -0.208 au  P             1.00      2 P:z             1
                        (      -5.658 eV)
    20      20       --         0.107 au  P             1.00      3 P:z             1
                        (       2.910 eV)
    21      21       --         0.924 au  P             1.00      4 P:z             1
                        (      25.153 eV)
    22      22       --        10.501 au  P             1.00      5 P:z             1
                        (     285.748 eV)
    23      23       --         0.440 au  P             1.00      1 D:z2            1
                        (      11.981 eV)
    24      24       --         0.440 au  P             1.00      1 D:x2-y2         1
                        (      11.981 eV)
    25      25       --         0.440 au  P             1.00      1 D:xy            1
                        (      11.981 eV)
    26      26       --         0.440 au  P             1.00      1 D:xz            1
                        (      11.981 eV)
    27      27       --         0.440 au  P             1.00      1 D:yz            1
                        (      11.981 eV)
    28      28       --         1.211 au  P             1.00      1 F:z3            1
                        (      32.964 eV)
    29      29       --         1.211 au  P             1.00      1 F:z             1
                        (      32.964 eV)
    30      30       --         1.211 au  P             1.00      1 F:xyz           1
                        (      32.964 eV)
    31      31       --         1.211 au  P             1.00      1 F:z2x           1
                        (      32.964 eV)
    32      32       --         1.211 au  P             1.00      1 F:z2y           1
                        (      32.964 eV)
    33      33       --         1.211 au  P             1.00      1 F:x             1
                        (      32.964 eV)
    34      34       --         1.211 au  P             1.00      1 F:y             1
                        (      32.964 eV)
    35      35      2.000     -19.396 au  O             1.00      1 S               2
                        (    -527.802 eV)
    36      36      2.000      -0.999 au  O             1.00      2 S               2
                        (     -27.198 eV)
    37      37       --         0.856 au  O             1.00      3 S               2
                        (      23.286 eV)
    38      38       --        13.669 au  O             1.00      4 S               2
                        (     371.949 eV)
    39      39       --       122.369 au  O             1.00      5 S               2
                        (    3329.820 eV)
    40      40      1.333      -0.366 au  O             1.00      1 P:x             2
                        (      -9.955 eV)
    41      41       --         0.397 au  O             1.00      2 P:x             2
                        (      10.811 eV)
    42      42       --         3.979 au  O             1.00      3 P:x             2
                        (     108.277 eV)
    43      43      1.333      -0.366 au  O             1.00      1 P:y             2
                        (      -9.955 eV)
    44      44       --         0.397 au  O             1.00      2 P:y             2
                        (      10.811 eV)
    45      45       --         3.979 au  O             1.00      3 P:y             2
                        (     108.277 eV)
    46      46      1.333      -0.366 au  O             1.00      1 P:z             2
                        (      -9.955 eV)
    47      47       --         0.397 au  O             1.00      2 P:z             2
                        (      10.811 eV)
    48      48       --         3.979 au  O             1.00      3 P:z             2
                        (     108.277 eV)
    49      49       --         1.128 au  O             1.00      1 D:z2            2
                        (      30.706 eV)
    50      50       --         1.128 au  O             1.00      1 D:x2-y2         2
                        (      30.706 eV)
    51      51       --         1.128 au  O             1.00      1 D:xy            2
                        (      30.706 eV)
    52      52       --         1.128 au  O             1.00      1 D:xz            2
                        (      30.706 eV)
    53      53       --         1.128 au  O             1.00      1 D:yz            2
                        (      30.706 eV)
    54      54       --         3.446 au  O             1.00      1 F:z3            2
                        (      93.772 eV)
    55      55       --         3.446 au  O             1.00      1 F:z             2
                        (      93.772 eV)
    56      56       --         3.446 au  O             1.00      1 F:xyz           2
                        (      93.772 eV)
    57      57       --         3.446 au  O             1.00      1 F:z2x           2
                        (      93.772 eV)
    58      58       --         3.446 au  O             1.00      1 F:z2y           2
                        (      93.772 eV)
    59      59       --         3.446 au  O             1.00      1 F:x             2
                        (      93.772 eV)
    60      60       --         3.446 au  O             1.00      1 F:y             2
                        (      93.772 eV)
    61      61      2.000     -19.396 au  O             1.00      1 S               3
                        (    -527.802 eV)
    62      62      2.000      -0.999 au  O             1.00      2 S               3
                        (     -27.198 eV)
    63      63       --         0.856 au  O             1.00      3 S               3
                        (      23.286 eV)
    64      64       --        13.669 au  O             1.00      4 S               3
                        (     371.949 eV)
    65      65       --       122.369 au  O             1.00      5 S               3
                        (    3329.820 eV)
    66      66      1.333      -0.366 au  O             1.00      1 P:x             3
                        (      -9.955 eV)
    67      67       --         0.397 au  O             1.00      2 P:x             3
                        (      10.811 eV)
    68      68       --         3.979 au  O             1.00      3 P:x             3
                        (     108.277 eV)
    69      69      1.333      -0.366 au  O             1.00      1 P:y             3
                        (      -9.955 eV)
    70      70       --         0.397 au  O             1.00      2 P:y             3
                        (      10.811 eV)
    71      71       --         3.979 au  O             1.00      3 P:y             3
                        (     108.277 eV)
    72      72      1.333      -0.366 au  O             1.00      1 P:z             3
                        (      -9.955 eV)
    73      73       --         0.397 au  O             1.00      2 P:z             3
                        (      10.811 eV)
    74      74       --         3.979 au  O             1.00      3 P:z             3
                        (     108.277 eV)
    75      75       --         1.128 au  O             1.00      1 D:z2            3
                        (      30.706 eV)
    76      76       --         1.128 au  O             1.00      1 D:x2-y2         3
                        (      30.706 eV)
    77      77       --         1.128 au  O             1.00      1 D:xy            3
                        (      30.706 eV)
    78      78       --         1.128 au  O             1.00      1 D:xz            3
                        (      30.706 eV)
    79      79       --         1.128 au  O             1.00      1 D:yz            3
                        (      30.706 eV)
    80      80       --         3.446 au  O             1.00      1 F:z3            3
                        (      93.772 eV)
    81      81       --         3.446 au  O             1.00      1 F:z             3
                        (      93.772 eV)
    82      82       --         3.446 au  O             1.00      1 F:xyz           3
                        (      93.772 eV)
    83      83       --         3.446 au  O             1.00      1 F:z2x           3
                        (      93.772 eV)
    84      84       --         3.446 au  O             1.00      1 F:z2y           3
                        (      93.772 eV)
    85      85       --         3.446 au  O             1.00      1 F:x             3
                        (      93.772 eV)
    86      86       --         3.446 au  O             1.00      1 F:y             3
                        (      93.772 eV)
    87      87      2.000     -19.396 au  O             1.00      1 S               4
                        (    -527.802 eV)
    88      88      2.000      -0.999 au  O             1.00      2 S               4
                        (     -27.198 eV)
    89      89       --         0.856 au  O             1.00      3 S               4
                        (      23.286 eV)
    90      90       --        13.669 au  O             1.00      4 S               4
                        (     371.949 eV)
    91      91       --       122.369 au  O             1.00      5 S               4
                        (    3329.820 eV)
    92      92      1.333      -0.366 au  O             1.00      1 P:x             4
                        (      -9.955 eV)
    93      93       --         0.397 au  O             1.00      2 P:x             4
                        (      10.811 eV)
    94      94       --         3.979 au  O             1.00      3 P:x             4
                        (     108.277 eV)
    95      95      1.333      -0.366 au  O             1.00      1 P:y             4
                        (      -9.955 eV)
    96      96       --         0.397 au  O             1.00      2 P:y             4
                        (      10.811 eV)
    97      97       --         3.979 au  O             1.00      3 P:y             4
                        (     108.277 eV)
    98      98      1.333      -0.366 au  O             1.00      1 P:z             4
                        (      -9.955 eV)
    99      99       --         0.397 au  O             1.00      2 P:z             4
                        (      10.811 eV)
   100     100       --         3.979 au  O             1.00      3 P:z             4
                        (     108.277 eV)
   101     101       --         1.128 au  O             1.00      1 D:z2            4
                        (      30.706 eV)
   102     102       --         1.128 au  O             1.00      1 D:x2-y2         4
                        (      30.706 eV)
   103     103       --         1.128 au  O             1.00      1 D:xy            4
                        (      30.706 eV)
   104     104       --         1.128 au  O             1.00      1 D:xz            4
                        (      30.706 eV)
   105     105       --         1.128 au  O             1.00      1 D:yz            4
                        (      30.706 eV)
   106     106       --         3.446 au  O             1.00      1 F:z3            4
                        (      93.772 eV)
   107     107       --         3.446 au  O             1.00      1 F:z             4
                        (      93.772 eV)
   108     108       --         3.446 au  O             1.00      1 F:xyz           4
                        (      93.772 eV)
   109     109       --         3.446 au  O             1.00      1 F:z2x           4
                        (      93.772 eV)
   110     110       --         3.446 au  O             1.00      1 F:z2y           4
                        (      93.772 eV)
   111     111       --         3.446 au  O             1.00      1 F:x             4
                        (      93.772 eV)
   112     112       --         3.446 au  O             1.00      1 F:y             4
                        (      93.772 eV)
   113     113      2.000     -19.396 au  O             1.00      1 S               5
                        (    -527.802 eV)
   114     114      2.000      -0.999 au  O             1.00      2 S               5
                        (     -27.198 eV)
   115     115       --         0.856 au  O             1.00      3 S               5
                        (      23.286 eV)
   116     116       --        13.669 au  O             1.00      4 S               5
                        (     371.949 eV)
   117     117       --       122.369 au  O             1.00      5 S               5
                        (    3329.820 eV)
   118     118      1.333      -0.366 au  O             1.00      1 P:x             5
                        (      -9.955 eV)
   119     119       --         0.397 au  O             1.00      2 P:x             5
                        (      10.811 eV)
   120     120       --         3.979 au  O             1.00      3 P:x             5
                        (     108.277 eV)
   121     121      1.333      -0.366 au  O             1.00      1 P:y             5
                        (      -9.955 eV)
   122     122       --         0.397 au  O             1.00      2 P:y             5
                        (      10.811 eV)
   123     123       --         3.979 au  O             1.00      3 P:y             5
                        (     108.277 eV)
   124     124      1.333      -0.366 au  O             1.00      1 P:z             5
                        (      -9.955 eV)
   125     125       --         0.397 au  O             1.00      2 P:z             5
                        (      10.811 eV)
   126     126       --         3.979 au  O             1.00      3 P:z             5
                        (     108.277 eV)
   127     127       --         1.128 au  O             1.00      1 D:z2            5
                        (      30.706 eV)
   128     128       --         1.128 au  O             1.00      1 D:x2-y2         5
                        (      30.706 eV)
   129     129       --         1.128 au  O             1.00      1 D:xy            5
                        (      30.706 eV)
   130     130       --         1.128 au  O             1.00      1 D:xz            5
                        (      30.706 eV)
   131     131       --         1.128 au  O             1.00      1 D:yz            5
                        (      30.706 eV)
   132     132       --         3.446 au  O             1.00      1 F:z3            5
                        (      93.772 eV)
   133     133       --         3.446 au  O             1.00      1 F:z             5
                        (      93.772 eV)
   134     134       --         3.446 au  O             1.00      1 F:xyz           5
                        (      93.772 eV)
   135     135       --         3.446 au  O             1.00      1 F:z2x           5
                        (      93.772 eV)
   136     136       --         3.446 au  O             1.00      1 F:z2y           5
                        (      93.772 eV)
   137     137       --         3.446 au  O             1.00      1 F:x             5
                        (      93.772 eV)
   138     138       --         3.446 au  O             1.00      1 F:y             5
                        (      93.772 eV)
   139     139      1.000      -0.242 au  H             1.00      1 S               6
                        (      -6.582 eV)
   140     140       --         0.113 au  H             1.00      2 S               6
                        (       3.073 eV)
   141     141       --         1.599 au  H             1.00      3 S               6
                        (      43.500 eV)
   142     142       --         0.445 au  H             1.00      1 P:x             6
                        (      12.103 eV)
   143     143       --         0.445 au  H             1.00      1 P:y             6
                        (      12.103 eV)
   144     144       --         0.445 au  H             1.00      1 P:z             6
                        (      12.103 eV)
   145     145       --         2.628 au  H             1.00      1 D:z2            6
                        (      71.505 eV)
   146     146       --         2.628 au  H             1.00      1 D:x2-y2         6
                        (      71.505 eV)
   147     147       --         2.628 au  H             1.00      1 D:xy            6
                        (      71.505 eV)
   148     148       --         2.628 au  H             1.00      1 D:xz            6
                        (      71.505 eV)
   149     149       --         2.628 au  H             1.00      1 D:yz            6
                        (      71.505 eV)
   150     150      1.000      -0.242 au  H             1.00      1 S               7
                        (      -6.582 eV)
   151     151       --         0.113 au  H             1.00      2 S               7
                        (       3.073 eV)
   152     152       --         1.599 au  H             1.00      3 S               7
                        (      43.500 eV)
   153     153       --         0.445 au  H             1.00      1 P:x             7
                        (      12.103 eV)
   154     154       --         0.445 au  H             1.00      1 P:y             7
                        (      12.103 eV)
   155     155       --         0.445 au  H             1.00      1 P:z             7
                        (      12.103 eV)
   156     156       --         2.628 au  H             1.00      1 D:z2            7
                        (      71.505 eV)
   157     157       --         2.628 au  H             1.00      1 D:x2-y2         7
                        (      71.505 eV)
   158     158       --         2.628 au  H             1.00      1 D:xy            7
                        (      71.505 eV)
   159     159       --         2.628 au  H             1.00      1 D:xz            7
                        (      71.505 eV)
   160     160       --         2.628 au  H             1.00      1 D:yz            7
                        (      71.505 eV)
   161     161      1.000      -0.242 au  H             1.00      1 S               8
                        (      -6.582 eV)
   162     162       --         0.113 au  H             1.00      2 S               8
                        (       3.073 eV)
   163     163       --         1.599 au  H             1.00      3 S               8
                        (      43.500 eV)
   164     164       --         0.445 au  H             1.00      1 P:x             8
                        (      12.103 eV)
   165     165       --         0.445 au  H             1.00      1 P:y             8
                        (      12.103 eV)
   166     166       --         0.445 au  H             1.00      1 P:z             8
                        (      12.103 eV)
   167     167       --         2.628 au  H             1.00      1 D:z2            8
                        (      71.505 eV)
   168     168       --         2.628 au  H             1.00      1 D:x2-y2         8
                        (      71.505 eV)
   169     169       --         2.628 au  H             1.00      1 D:xy            8
                        (      71.505 eV)
   170     170       --         2.628 au  H             1.00      1 D:xz            8
                        (      71.505 eV)
   171     171       --         2.628 au  H             1.00      1 D:yz            8
                        (      71.505 eV)



 ================================
 (Slater-type)  F U N C T I O N S  ***  (Basis and Fit)  ***
 ================================
  

 Atom Type    1  (P)
 ==============

 Valence Basis Sets:  14
 -----------------------
   1 S   18.000000
   1 S   13.350000
   2 S    5.600000
   2 S    4.050000
   2 P    7.450000
   2 P    4.100000
   3 S    2.700000
   3 S    1.850000
   3 S    1.300000
   3 P    2.300000
   3 P    1.350000
   3 P    0.850000
   3 D    1.900000
   4 F    2.000000

 Charge Fitting Sets (for the computation of the Coulomb Potential):  30
 -----------------------------------------------------------------------
   1 S   36.000000
   1 S   21.450000
   2 S   23.670000
   2 S   15.860000
   3 S   15.600000
   3 S   11.130000
   3 S    7.940000
   4 S    7.490000
   4 S    5.560000
   4 S    4.130000
   5 S    3.810000
   5 S    2.910000
   5 S    2.230000
   5 S    1.700000
   2 P   25.450000
   3 P   18.490000
   4 P   13.440000
   4 P    7.810000
   5 P    5.730000
   5 P    3.510000
   5 P    2.150000
   3 D   19.350000
   4 D   13.230000
   4 D    7.250000
   5 D    5.040000
   5 D    2.930000
   5 D    1.700000
   4 F    5.000000
   4 F    3.000000
   5 G    3.750000

 Atom Type    2  (O)
 ==============

 Valence Basis Sets:  10
 -----------------------
   1 S    9.800000
   1 S    6.800000
   2 S    7.580000
   2 S    2.880000
   2 S    1.720000
   2 P    4.080000
   2 P    2.080000
   2 P    1.120000
   3 D    2.000000
   4 F    3.000000

 Charge Fitting Sets (for the computation of the Coulomb Potential):  22
 -----------------------------------------------------------------------
   1 S   19.600000
   2 S   22.600000
   2 S   15.680000
   2 S   10.890000
   2 S    7.560000
   3 S    7.690000
   3 S    5.650000
   3 S    4.150000
   3 S    3.050000
   3 S    2.240000
   2 P   12.860000
   2 P    7.680000
   3 P    6.780000
   3 P    4.390000
   3 P    2.840000
   3 D    8.800000
   3 D    5.580000
   3 D    3.530000
   3 D    2.240000
   4 F    6.200000
   4 F    3.700000
   5 G    4.500000

 Atom Type    3  (H)
 ==============

 Valence Basis Sets:   5
 -----------------------
   1 S    0.690000
   1 S    0.920000
   1 S    1.580000
   2 P    1.250000
   3 D    2.500000

 Charge Fitting Sets (for the computation of the Coulomb Potential):  11
 -----------------------------------------------------------------------
   1 S    3.160000
   1 S    2.090000
   1 S    1.380000
   2 S    1.500000
   2 P    4.000000
   2 P    2.650000
   2 P    1.750000
   3 D    4.000000
   3 D    2.500000
   4 F    3.000000
   5 G    4.000000


 BAS: List of all Elementary Cartesian Basis Functions
 =====================================================

 The numbering in the list below (to the right of the function characteristics) is referred
 to in print-outs of MO eigenvectors and Mulliken populations in the BAS representation
 (as contrasted to the SFO representation).

 Notes:
 1. The functions are characterized by a polynomial prefactor (powers of x,y,z and r) and
    an exponential decay factor alpha.
 2. Since the basis sets are specific for an atom TYPE, the individual functions occur on
    all atoms of that type.
 3. The word 'Core' in the left margin signals that it is a Core Function (CF) : not a
    degree of freedom in the valence set, but only used to ensure orthogonalization of
    the other valence basis functions on the frozen Core Orbitals.


 (power of) X  Y  Z  R     Alpha  on Atom
            ==========     =====     ==========

 P                                    1
                                  ---------------------------------------------------------------------------
            0  0  0  0    18.000      1
            0  0  0  0    13.350      2
            0  0  0  1     5.600      3
            0  0  0  1     4.050      4
            1  0  0  0     7.450      5
            0  1  0  0     7.450      6
            0  0  1  0     7.450      7
            1  0  0  0     4.100      8
            0  1  0  0     4.100      9
            0  0  1  0     4.100     10
            0  0  0  2     2.700     11
            0  0  0  2     1.850     12
            0  0  0  2     1.300     13
            1  0  0  1     2.300     14
            0  1  0  1     2.300     15
            0  0  1  1     2.300     16
            1  0  0  1     1.350     17
            0  1  0  1     1.350     18
            0  0  1  1     1.350     19
            1  0  0  1     0.850     20
            0  1  0  1     0.850     21
            0  0  1  1     0.850     22
            2  0  0  0     1.900     23
            1  1  0  0     1.900     24
            1  0  1  0     1.900     25
            0  2  0  0     1.900     26
            0  1  1  0     1.900     27
            0  0  2  0     1.900     28
            3  0  0  0     2.000     29
            2  1  0  0     2.000     30
            2  0  1  0     2.000     31
            1  2  0  0     2.000     32
            1  1  1  0     2.000     33
            1  0  2  0     2.000     34
            0  3  0  0     2.000     35
            0  2  1  0     2.000     36
            0  1  2  0     2.000     37
            0  0  3  0     2.000     38

 O                                    2    3    4    5
                                  ---------------------------------------------------------------------------
            0  0  0  0     9.800     39   69   99  129
            0  0  0  0     6.800     40   70  100  130
            0  0  0  1     7.580     41   71  101  131
            0  0  0  1     2.880     42   72  102  132
            0  0  0  1     1.720     43   73  103  133
            1  0  0  0     4.080     44   74  104  134
            0  1  0  0     4.080     45   75  105  135
            0  0  1  0     4.080     46   76  106  136
            1  0  0  0     2.080     47   77  107  137
            0  1  0  0     2.080     48   78  108  138
            0  0  1  0     2.080     49   79  109  139
            1  0  0  0     1.120     50   80  110  140
            0  1  0  0     1.120     51   81  111  141
            0  0  1  0     1.120     52   82  112  142
            2  0  0  0     2.000     53   83  113  143
            1  1  0  0     2.000     54   84  114  144
            1  0  1  0     2.000     55   85  115  145
            0  2  0  0     2.000     56   86  116  146
            0  1  1  0     2.000     57   87  117  147
            0  0  2  0     2.000     58   88  118  148
            3  0  0  0     3.000     59   89  119  149
            2  1  0  0     3.000     60   90  120  150
            2  0  1  0     3.000     61   91  121  151
            1  2  0  0     3.000     62   92  122  152
            1  1  1  0     3.000     63   93  123  153
            1  0  2  0     3.000     64   94  124  154
            0  3  0  0     3.000     65   95  125  155
            0  2  1  0     3.000     66   96  126  156
            0  1  2  0     3.000     67   97  127  157
            0  0  3  0     3.000     68   98  128  158

 H                                    6    7    8
                                  ---------------------------------------------------------------------------
            0  0  0  0     0.690    159  171  183
            0  0  0  0     0.920    160  172  184
            0  0  0  0     1.580    161  173  185
            1  0  0  0     1.250    162  174  186
            0  1  0  0     1.250    163  175  187
            0  0  1  0     1.250    164  176  188
            2  0  0  0     2.500    165  177  189
            1  1  0  0     2.500    166  178  190
            1  0  1  0     2.500    167  179  191
            0  2  0  0     2.500    168  180  192
            0  1  1  0     2.500    169  181  193
            0  0  2  0     2.500    170  182  194

 Total number of charge fitting functions (nprimf)       592
 Total number of Cartesian basis functions (naos)        194
 Total number of Cartesian core functions  (ncos)          0

1
 ***************************************************************************************************



                                              ***********************
                                              *  T E C H N I C A L  *
                                              ***********************
  



 =============================================================
 P A R A L L E L I Z A T I O N  and  V E C T O R I Z A T I O N
 =============================================================
  
 Nr of parallel processes:                                4
 Maximum vector length in NumInt loops:                 128



 =====================
 S C F   U P D A T E S
 =====================
  
 Max. nr. of cycles:                               300
 Convergence criterion:                              0.0000010000
   secondary criterion:                              0.0010000000

 Mix parameter (when DIIS does not apply):           0.2000000000
 Mixed ADIIS+SDIIS will be used                  
    Max number of expansion vectors:                10
    Pure ADIIS when Max([F,P]) is above              0.1000000000
    Pure SDIIS when Max([F,P]) is below              0.0010000000
 Automatic ElectronSmearing (in case of problematic SCF convergence) disabled



 =================
 P R E C I S I O N  ***  (General: NumInt, NeglectFunctionTails, ...)  ***
 =================
  

 NumInt:           Target precision:                 6.0000000000
 -------           Initial precision:                6.0000000000
                   Min. precision (optimization):    6.0000000000

 Neglect Functions:          Basis functions:        0.1000000000E-07
 ------------------          Fit functions:          0.1000000000E-07



 ===========================
 L I N E A R   S C A L I N G
 ===========================
  

 Cut-off radii density fit:                        0.1000000000E-09
 Overlap cut-off criterion AO matrix elements:     0.1000000000E-07
 Cut-offs for Coulomb potential and fitted density:0.1000000000E-09
 Cut-off criterion for Coulomb multipole terms:    0.1000000000E-09
 Progressive Convergence parameter:                 0.000000000    

 Number of elements of the density matrix on this node (used, total):      4860     18915



 ===========================================
 Numerical Integration : Fuzzy Cells (Becke)
 ===========================================
  
 Becke grid quality: GOOD           
  
 Lebedev angular grid order:             min:  11 max:  31
 Nr. of radial points:                   min:  54 max:  76

 Total nr. of points:     101649
 Nr. of blocks:              795
 Block length:               128
 Nr. of dummy points:        111


 Test of Precision of the Numerical Integration Grid
 ===================================================

 Integral of the Total Core Density:                   0.00000000000000


 -------------------------------------------
  COSMO surface
  Area             =          351.681
  Volume           =          525.883
  Number of Points =          943
 -------------------------------------------



 ========================
 Density Fitting (zlmFit)
 ========================
  
 ZlmFit Fit Quality: GOOD           
  
 Max L-expansion:                        min:   8 max:   9
 Nr. of radial interpolation points:     min:  78 max: 126



 ======================
 RI Hartree-Fock Scheme
 ======================
  
 Fit Set Quality     : GOOD
 Integration Quality : GOOD
 Threshold Quality   : GOOD
 Response Quality    : DEFAULT
 Is Range Separated  :  F
 
 RIHartreeFock Dependency: number of modified vectors:           3



 =====
 S C F  ***  ScaSCF  ***
 =====
  
 Initial density matrix is taken from previous geometry

 CYCLE    1
  ***********************************************************
  ** : orbital data taken from :/tmp/amstmp_ams_kid0.322793183/GOStep2.rkf
  ***********************************************************
 SCF Error: norm([F,P])=      0.061497685140, max([F,P])=      0.014622802414
 orbitals (Q,E):
 ---------------
 A :16...35          ( 2.00    -0.5951)  ( 2.00    -0.5016)  ( 2.00    -0.4651)  ( 2.00    -0.4651)
                     ( 2.00    -0.4147)  ( 2.00    -0.4146)  ( 2.00    -0.3933)  ( 2.00    -0.3755)
                     ( 2.00    -0.3158)  ( 2.00    -0.3158)  ( 0.00    -0.0159)  ( 0.00     0.0247)
                     ( 0.00     0.0247)  ( 0.00     0.1055)  ( 0.00     0.1255)  ( 0.00     0.1255)
                     ( 0.00     0.1403)  ( 0.00     0.1688)  ( 0.00     0.1688)  ( 0.00     0.1715)

 CYCLE    2
  SDIIS (wt  0.000):  0.6284  0.3716
 A-DIIS (wt  1.000):  0.6446  0.3554
  DIIS coefficients:  0.6446  0.3554
 SCF Error: norm([F,P])=      0.099767731002, max([F,P])=      0.028928409863
 orbitals (Q,E):
 ---------------
 A :16...26          ( 2.00    -0.5924)  ( 2.00    -0.5066)  ( 2.00    -0.4657)  ( 2.00    -0.4657)
                     ( 2.00    -0.4143)  ( 2.00    -0.4143)  ( 2.00    -0.4018)  ( 2.00    -0.3783)
                     ( 2.00    -0.3278)  ( 2.00    -0.3278)  ( 0.00    -0.0109)

 CYCLE    3
  SDIIS (wt  0.000):  0.4383  0.1409  0.4208
 A-DIIS (wt  1.000):  0.3165  0.0000  0.6835
  DIIS coefficients:  0.3165  0.0000  0.6835
 SCF Error: norm([F,P])=      0.040144696793, max([F,P])=      0.009583070298
 orbitals (Q,E):
 ---------------
 A :16...26          ( 2.00    -0.5910)  ( 2.00    -0.5079)  ( 2.00    -0.4660)  ( 2.00    -0.4660)
                     ( 2.00    -0.4140)  ( 2.00    -0.4140)  ( 2.00    -0.4036)  ( 2.00    -0.3782)
                     ( 2.00    -0.3288)  ( 2.00    -0.3288)  ( 0.00    -0.0065)

 CYCLE    4
  SDIIS (wt  0.922): -0.3178  0.1835  1.1343
 A-DIIS (wt  0.078):  0.0000  0.0000  1.0000
  DIIS coefficients: -0.2930  0.1692  1.1238
 SCF Error: norm([F,P])=      0.027994557414, max([F,P])=      0.008728768597
 orbitals (Q,E):
 ---------------
 A :16...26          ( 2.00    -0.5887)  ( 2.00    -0.5107)  ( 2.00    -0.4657)  ( 2.00    -0.4657)
                     ( 2.00    -0.4128)  ( 2.00    -0.4128)  ( 2.00    -0.4091)  ( 2.00    -0.3773)
                     ( 2.00    -0.3359)  ( 2.00    -0.3359)  ( 0.00    -0.0025)

 CYCLE    5
  SDIIS (wt  0.987): -0.1015 -0.0639  0.5358  0.6296
 A-DIIS (wt  0.013):  0.0000  0.0000  0.0000  1.0000
  DIIS coefficients: -0.1001 -0.0631  0.5288  0.6345
 SCF Error: norm([F,P])=      0.011719717973, max([F,P])=      0.002296134331
 orbitals (Q,E):
 ---------------
 A :16...26          ( 2.00    -0.5899)  ( 2.00    -0.5110)  ( 2.00    -0.4667)  ( 2.00    -0.4667)
                     ( 2.00    -0.4140)  ( 2.00    -0.4140)  ( 2.00    -0.4089)  ( 2.00    -0.3785)
                     ( 2.00    -0.3353)  ( 2.00    -0.3353)  ( 0.00    -0.0027)

 CYCLE    6
  SDIIS (wt  1.000): -0.0010 -0.0532  0.0851  0.3172  0.6518
  DIIS coefficients: -0.0010 -0.0532  0.0851  0.3172  0.6518
 SCF Error: norm([F,P])=      0.003819942380, max([F,P])=      0.000620994167
 orbitals (Q,E):
 ---------------
 A :16...26          ( 2.00    -0.5897)  ( 2.00    -0.5108)  ( 2.00    -0.4665)  ( 2.00    -0.4664)
                     ( 2.00    -0.4137)  ( 2.00    -0.4137)  ( 2.00    -0.4088)  ( 2.00    -0.3782)
                     ( 2.00    -0.3352)  ( 2.00    -0.3352)  ( 0.00    -0.0026)

 CYCLE    7
  SDIIS (wt  1.000):  0.0011  0.0003 -0.0102  0.0222  0.0889  0.8978
  DIIS coefficients:  0.0011  0.0003 -0.0102  0.0222  0.0889  0.8978
 SCF Error: norm([F,P])=      0.000420266587, max([F,P])=      0.000099019705
 orbitals (Q,E):
 ---------------
 A :16...26          ( 2.00    -0.5897)  ( 2.00    -0.5108)  ( 2.00    -0.4664)  ( 2.00    -0.4664)
                     ( 2.00    -0.4137)  ( 2.00    -0.4137)  ( 2.00    -0.4088)  ( 2.00    -0.3782)
                     ( 2.00    -0.3352)  ( 2.00    -0.3352)  ( 0.00    -0.0026)

 CYCLE    8
  SDIIS (wt  1.000):  0.0002  0.0017 -0.0054 -0.0000  0.0149  0.3429  0.6457
  DIIS coefficients:  0.0002  0.0017 -0.0054 -0.0000  0.0149  0.3429  0.6457
 SCF Error: norm([F,P])=      0.000112196362, max([F,P])=      0.000019173970
 orbitals (Q,E):
 ---------------
 A :16...26          ( 2.00    -0.5897)  ( 2.00    -0.5109)  ( 2.00    -0.4665)  ( 2.00    -0.4664)
                     ( 2.00    -0.4137)  ( 2.00    -0.4137)  ( 2.00    -0.4088)  ( 2.00    -0.3782)
                     ( 2.00    -0.3352)  ( 2.00    -0.3352)  ( 0.00    -0.0026)

 CYCLE    9
  SDIIS (wt  1.000):  0.0000  0.0000 -0.0002 -0.0009 -0.0014  0.0145  0.1412  0.8467
  DIIS coefficients:  0.0000  0.0000 -0.0002 -0.0009 -0.0014  0.0145  0.1412  0.8467
 SCF Error: norm([F,P])=      0.000019129412, max([F,P])=      0.000004466161
 orbitals (Q,E):
 ---------------
 A :16...26          ( 2.00    -0.5897)  ( 2.00    -0.5109)  ( 2.00    -0.4665)  ( 2.00    -0.4664)
                     ( 2.00    -0.4137)  ( 2.00    -0.4137)  ( 2.00    -0.4088)  ( 2.00    -0.3782)
                     ( 2.00    -0.3352)  ( 2.00    -0.3352)  ( 0.00    -0.0026)

 CYCLE   10
  SDIIS (wt  1.000):  0.0000 -0.0000  0.0001 -0.0002 -0.0007 -0.0052  0.0123  0.1482  0.8456
  DIIS coefficients:  0.0000 -0.0000  0.0001 -0.0002 -0.0007 -0.0052  0.0123  0.1482  0.8456
 SCF Error: norm([F,P])=      0.000001801440, max([F,P])=      0.000000482745
 orbitals (Q,E):
 ---------------
 A :16...26          ( 2.00    -0.5897)  ( 2.00    -0.5109)  ( 2.00    -0.4665)  ( 2.00    -0.4664)
                     ( 2.00    -0.4137)  ( 2.00    -0.4137)  ( 2.00    -0.4088)  ( 2.00    -0.3782)
                     ( 2.00    -0.3352)  ( 2.00    -0.3352)  ( 0.00    -0.0026)

 SCF CONVERGED
 cosmo_calcen: 0.5 (esolb+esolc) (Hartrees) =   -0.020534

 Solvation energy (screening term,uncorrected) =    -12.885577 kcal/mol

 Solvation energy (dispersion and cavitation terms) =      0.527340 kcal/mol
 Solvation Energy Contributions (Hartrees)
          esola   esolb+esolc
     0.02053447   -0.04106895
 esol last cycle   -0.02053447

 CYCLE   11
1
 ***************************************************************************************************



                                                *******************
                                                *  R E S U L T S  *
                                                *******************
  
  
 Hartree-Fock exchange energy:   -56.9675837796607     
 *** Using FIT density in Focky
  SDIIS (wt  1.000):  0.0000 -0.0000  0.0000 -0.0000 -0.0001 -0.0011 -0.0023  0.0027  0.1187  0.8821
  DIIS coefficients:  0.0000 -0.0000  0.0000 -0.0000 -0.0001 -0.0011 -0.0023  0.0027  0.1187  0.8821
 SCF Error: norm([F,P])=      0.000000343312, max([F,P])=      0.000000070541

 Scaled ZORA Orbital Energies, per Irrep and Spin:
 =================================================
                        Occup              E (au)              E (eV)       Diff (eV) with prev. cycle
                        -----      --------------------        ------       --------------------------
 A
              16        2.000     -0.58967409575411E+00       -16.046              -1.15E-06
              17        2.000     -0.51085106869368E+00       -13.901              -5.95E-07
              18        2.000     -0.46645098958793E+00       -12.693               1.01E-07
              19        2.000     -0.46644316603108E+00       -12.693              -1.01E-06
              20        2.000     -0.41372868357807E+00       -11.258              -1.17E-06
              21        2.000     -0.41372115499791E+00       -11.258               1.12E-07
              22        2.000     -0.40881885086169E+00       -11.125              -6.84E-07
              23        2.000     -0.37819686275622E+00       -10.291              -4.88E-07
              24        2.000     -0.33519570803466E+00        -9.121              -7.40E-07
              25        2.000     -0.33519152967563E+00        -9.121              -8.24E-07
              26        0.000     -0.25637031358950E-02        -0.070
              27        0.000      0.43271356485397E-01         1.177
              28        0.000      0.43275514266989E-01         1.178
              29        0.000      0.96200329344677E-01         2.618
              30        0.000      0.13109635354654E+00         3.567
              31        0.000      0.13111623314860E+00         3.568
              32        0.000      0.14055519786466E+00         3.825
              33        0.000      0.16731359306927E+00         4.553
              34        0.000      0.16731975422265E+00         4.553
              35        0.000      0.17650507814371E+00         4.803
  
 HOMO :       25 A                -0.33519152967563E+00
 LUMO :       26 A                -0.25637031358950E-02
  
 cosmo_calcen: 0.5 (esolb+esolc) (Hartrees) =   -0.020534

 Solvation energy (screening term,uncorrected) =    -12.885578 kcal/mol

 Solvation energy (dispersion and cavitation terms) =      0.527340 kcal/mol
 Solvation Energy Contributions (Hartrees)
          esola   esolb+esolc
     0.02053447   -0.04106895
 esol last cycle   -0.02053447


 All Electron Calculation, thus no Orbital Energies of the Core Orbitals are calculated


 Fit test: (difference of exact and fit density, squared integrated, result summed over spins)
         Sum-of-Fragments:                             0.00000000416025
         Orthogonalized Fragments:                     0.00003385326360
         SCF:                                          0.00001918656035



 ==========================
 Electron Density at Nuclei
 ==========================
  
 The electron density is calculated at points on a small sphere around the center of a nucleus.
 The printed electron density is the average electron density on these points.
 The radius of the sphere is the printed approximate finite nuclear radius.
 Note: ZORA-4 density is used, which includes small component density

         Atom        Nuclear Radius (Angstrom)             Electron Density (a.u.)
         ----        -------------------------             -----------------------
     1)   P                 0.0000412627                             2231.33439
     2)   O                 0.0000345546                              312.53015
     3)   O                 0.0000345546                              312.52968
     4)   O                 0.0000345546                              312.53083
     5)   O                 0.0000345546                              312.84061
     6)   H                 0.0000181514                                0.45126
     7)   H                 0.0000181514                                0.45125
     8)   H                 0.0000181514                                0.45123



 =======================================
 M U L L I K E N   P O P U L A T I O N S
 =======================================
  
 The survey below gives for each atom:
 a) the total charge (Z minus electrons)
 b) the net spin polarization (nr of electrons spin-A minus spin-B)
 c) for each spin the atomic electron valence density (integrated) per L-value.

 Atom              Charge    Spin density          S         P         D         F
 ----              ------    ------------       ------    ------    ------    ------
 1 P               1.6261                       4.7617    7.5930    0.8536    0.1657
 2 O              -0.5324                       3.7509    4.7348    0.0426    0.0041
 3 O              -0.5323                       3.7508    4.7348    0.0426    0.0041
 4 O              -0.5324                       3.7509    4.7348    0.0426    0.0041
 5 O              -0.7710                       3.8216    4.9012    0.0441    0.0040
 6 H               0.2473                       0.6259    0.1137    0.0131    0.0000
 7 H               0.2473                       0.6258    0.1137    0.0131    0.0000
 8 H               0.2473                       0.6259    0.1137    0.0131    0.0000

 Populations of individual BAS functions
 ----------------------------------------
 1 P            0.5731  1.3883  1.4126  0.6153  0.7925  0.7925  0.7956  1.2110  1.2110  1.2074
                0.3257  0.6632 -0.2164  0.3465  0.3465  0.3835  0.2545  0.2545  0.1846 -0.0781
               -0.0781 -0.0310  0.0917  0.1441  0.1983  0.0917  0.1983  0.1295  0.0061  0.0182
                0.0076  0.0123  0.0206  0.0346  0.0080  0.0076  0.0346  0.0160
 2 O            0.6445  1.3315 -0.0043  0.9936  0.7857  0.2307  0.2941  0.2847  0.8985  0.9850
                0.9624  0.1568  0.4781  0.4445  0.0312  0.0092  0.0147 -0.0134  0.0074 -0.0065
                0.0098  0.0109  0.0104 -0.0065  0.0007 -0.0022 -0.0098 -0.0039  0.0001 -0.0053
 3 O            0.6444  1.3316 -0.0044  0.9937  0.7855  0.2845  0.2403  0.2847  0.9724  0.9111
                0.9624  0.4258  0.2091  0.4445 -0.0016  0.0050  0.0077  0.0237  0.0144 -0.0065
               -0.0025 -0.0046 -0.0013  0.0043  0.0005 -0.0009  0.0071  0.0080 -0.0013 -0.0053
 4 O            0.6447  1.3311 -0.0042  0.9936  0.7856  0.2720  0.2527  0.2847  0.9543  0.9292
                0.9624  0.3698  0.2651  0.4445  0.0003  0.0073  0.0107  0.0195  0.0113 -0.0065
               -0.0038 -0.0030  0.0006  0.0045  0.0010 -0.0001  0.0065  0.0056 -0.0020 -0.0053
 5 O            0.6357  1.3427 -0.0073  1.0084  0.8422  0.2803  0.2803  0.2568  0.8892  0.8891
                0.8303  0.5494  0.5494  0.3764 -0.0061  0.0005  0.0144 -0.0061  0.0144  0.0270
               -0.0085 -0.0028 -0.0080 -0.0028  0.0001  0.0128 -0.0085 -0.0080  0.0128  0.0170
 6 H           -0.0031  0.2680  0.3610  0.0316  0.0415  0.0405  0.0086  0.0031  0.0031 -0.0029
                0.0014 -0.0001
 7 H           -0.0031  0.2680  0.3610  0.0379  0.0353  0.0406 -0.0059  0.0037  0.0010  0.0110
                0.0034 -0.0001
 8 H           -0.0032  0.2681  0.3609  0.0402  0.0329  0.0406  0.0059  0.0024  0.0026  0.0005
                0.0019 -0.0001

 Gross Charges per Atom (Z minus electrons)
 ==========================================
             1.6261   -0.5324   -0.5323   -0.5324   -0.7710    0.2473    0.2473    0.2473
 Net Total:  0.00000000


 Atom-Atom Population Matrix (off-diagonal elements not doubled)
 ===============================================================

     1 :    11.7368
     2 :     0.3707    7.8600
     3 :     0.3708   -0.0371    7.8598
     4 :     0.3707   -0.0370   -0.0370    7.8600
     5 :     0.6754   -0.0422   -0.0422   -0.0422    8.2331
     6 :    -0.0501    0.4148    0.0040   -0.0009   -0.0037    0.3856
     7 :    -0.0501   -0.0009    0.4149    0.0040   -0.0037    0.0015    0.3855
     8 :    -0.0502    0.0040   -0.0009    0.4148   -0.0037    0.0015    0.0015    0.3856



 =================================================
 H I R S H F E L D   C H A R G E   A N A L Y S I S
 =================================================
  
 For each fragment: the (numerical) integral of rho(scf) * rho(fragment)/rho(sum-of-fragments)
 (nuclear charges are included, electrons are counted negative)

 The fragments and their ordering are defined in the early G E O M E T R Y output section.
 If you use single-atom fragments, this usually implies that all atoms of the same
 chemical type are grouped together. This may not be the order in which you listed them
 in the input file!

    1  P                         0.5264
    2  O                        -0.2349
    3  O                        -0.2349
    4  O                        -0.2349
    5  O                        -0.4548
    6  H                         0.2110
    7  H                         0.2110
    8  H                         0.2110

 Sum of these charges (accuracy NumInt/Tails) =          -0.00004095



 =============================
 V O R O N O I   C H A R G E S
 =============================
  
 For each atom: the (numerical) integral of the total electronic charge density in its Voronoi cell,
 i.e. the region of space that is closer to that atom than to any other atom.
 (cf. Wigner-Seitz cells in crystals)

 Within the Voronoi cell the subintegrals over the atomic sphere and the remaining part are evaluated
 separately to give the numbers of electrons (negative charge) in these regions.
 The net total charge in the cell (including the nuclear charge) is also given.

 Values are provided for
    a) the Initial (sum-of-fragments) density
    b) the Orthogonalized-Fragments density
    c) the SCF density
    d) the Voronoi Deformation Density (VDD): the difference SCF-Initial for the complete atomic cell


  Atom                Initial                    OrthFrag                   SCF
             Sphere RestCell NetTotal   Sphere RestCell NetTotal   Sphere RestCell NetTotal      VDD
 -----       ------------------------   ------------------------   ------------------------    -----
    1 P      -9.717   -3.463    1.820   -9.763   -3.677    1.560   -9.683   -3.011    2.306    0.486
    2 O      -2.800   -5.035    0.165   -2.967   -4.922    0.111   -2.831   -5.249   -0.080   -0.245
    3 O      -2.800   -5.040    0.160   -2.967   -4.925    0.107   -2.831   -5.253   -0.085   -0.245
    4 O      -2.800   -5.030    0.171   -2.967   -4.918    0.115   -2.831   -5.245   -0.076   -0.247
    5 O      -2.796   -5.686   -0.482   -2.916   -5.514   -0.430   -2.823   -6.178   -1.001   -0.520
    6 H      -0.096   -1.518   -0.613   -0.097   -1.392   -0.489   -0.121   -1.235   -0.356    0.257
    7 H      -0.096   -1.517   -0.613   -0.097   -1.392   -0.489   -0.121   -1.235   -0.356    0.257
    8 H      -0.096   -1.513   -0.609   -0.097   -1.388   -0.486   -0.122   -1.231   -0.353    0.256
 ---------------------------------------------------------------------------------------------------
 Total NetCharge:              -0.000                     -0.000                     -0.000    0.000
 (accuracy NumInt/Tails)

 Remark: the 'NetTotal' Voronoi charges often do not match the Mulliken and/or Hirshfeld charges very
 well. This is caused by the fact that chemically different atoms are not treated in accordance with
 their relative sizes. (Voronoi cells are defined by boundary planes halfway between the atoms.)
 However, the CHANGES in charge, comparing 'Initial' to 'SCF' for instance, do give a fair indication
 of the flow of charge caused by the relaxation from sum-of-fragments to self-consistency.

 Warning: the absolute accuracy of the VDD charges obtained using the Fuzzy Cells (Becke) integration
 scheme is much poorer than the one obtained with an 'equivalent' Voronoi integration grid. 



 =================================================================
 M U L T I P O L E   D E R I V E D   C H A R G E   A N A L Y S I S
 =================================================================

 This charge analysis uses the atomic multipoles (obtained from the fitted density) up to some level X,
 and reconstructs these multipoles exactly (up to level X) by distributing charges over all atoms.
 This is achieved by using Lagrange multipliers and a weight function to keep the multipoles local.

 Dummy atoms can be included (by setting INCDUM in MDC-block to 1) to obtain a fractional charge.
 This is generally useful and necessary only for small symmetrical molecules, when there are not
 enough degrees of freedom to reconstruct the multipoles.

 Since the atomic multipoles are reconstructed up to level X,
 the molecular multipoles are represented also up to level X.
 The recommended level is to reconstruct up to quadrupole : -> MDC-q charges.

 See: M. Swart, P.Th. van Duijnen, J.G. Snijders, J.Comput.Chem., (2001), p. 79-88.

 ------------------------------------------------------------- 
 Atomic electronic multipole moments from SCF equations (a.u.)
 ------------------------------------------------------------- 

   atom        charge        dip-x     dip-y     dip-z      quad-xx   quad-xy   quad-xz   quad-yy   quad-yz   quad-zz
 --------------------------------------------------------------------------------------------------------------------
    1 P      2.092996    -0.000011  0.000002  0.159245    -0.052432  0.000039  0.000053 -0.052420 -0.000018  0.104852
    2 O     -0.520250    -0.340788  0.151031 -0.145702     0.706469 -0.118161  0.129637 -0.416239 -0.177087 -0.290230
    3 O     -0.520284     0.039657 -0.370691 -0.145641    -0.289084 -0.264971  0.088525  0.579317  0.200873 -0.290234
    4 O     -0.520273     0.301182  0.219568 -0.145681     0.017904  0.383274 -0.218210  0.272338 -0.023684 -0.290242
    5 O     -0.947267    -0.000042  0.000025 -0.002086    -0.324551 -0.000010 -0.000012 -0.324500  0.000007  0.649050
    6 H      0.138358    -0.129827  0.030790 -0.031057     0.104083 -0.049342  0.065998 -0.061957 -0.034244 -0.042126
    7 H      0.138360     0.038245 -0.127823 -0.031051    -0.084539 -0.023282 -0.003334  0.126690  0.074272 -0.042151
    8 H      0.138359     0.091575  0.097033 -0.031059     0.043648  0.072631 -0.062653 -0.001499 -0.040022 -0.042148

 --------------------------------------- 
 Multipole derived atomic charges (a.u.)
 --------------------------------------- 

 The MDC-m charges are just the Monopole terms in the multipole expansion, while for the MDC-d charges
 also the Dipoles are reconstructed. The usually preferred charges are the MDC-q charges.
 These reconstruct the Monopoles, Dipoles and Quadrupoles (both atomic AND molecular).

        Atom    Level:     MDC-m        MDC-d        MDC-q
 ---------------------------------------------------------
     1     P            2.092996     1.650562     1.926006
     2     O           -0.520250    -0.666399    -0.783769
     3     O           -0.520284    -0.666383    -0.718563
     4     O           -0.520273    -0.666412    -0.695995
     5     O           -0.947267    -0.893496    -0.883526
     6     H            0.138358     0.414059     0.393845
     7     H            0.138360     0.414035     0.390839
     8     H            0.138359     0.414035     0.371163

 ------------------------------------------------ 
[...]
 Rank   Node Name                              NodeID   MyNodeRank  NodeMaster
    0   ubuntu-kch                                0          0          0
    1   ubuntu-kch                                0          1         -1
    2   ubuntu-kch                                0          2         -1
    3   ubuntu-kch                                0          3         -1
 ==============================================================================


May use up to 7570MB of RAM as shared memory on node 0
 
NMR
    out    iso    tens
    adfgui
    Atoms 1
    u1k best
    calc all
End

 *******************************************************************************
 *                                                                             *
 *  --------------------------------                                           *
 *   Amsterdam Modeling Suite (AMS)              2021.105                      *
 *  --------------------------------                                           *
 *                                               r97261 2021-09-16             *
 *                                                                             *
 *                                                                             *
 *                              =================                              *
 *                              |               |                              *
 *                              |     N M R     |                              *
 *                              |               |                              *
 *                              =================                              *
 *                                                                             *
 *                                                                             *
 *   Online information and documentation:  https://www.scm.com/support/       *
 *   E-mail:  support@scm.com   info@scm.com                                   *
 *                                                                             *
 *   Scientific publications using AMS results must be properly referenced     *
 *   See the User Manuals (or the web site) for recommended citations          *
 *   The terms and conditions of the End User License Agreement apply to       *
 *   the use of AMS, https://www.scm.com/license-terms/                        *
 *                                                                             *
 **********************  x86_64_linux_intel / intelmpi  ************************
 
 Licensed to: Dr. Miroslav Ilias / Matej Bel University, Department Chemistry, Fac. Natural Sciences / Banska Bystrica / SLOVAKIA
 SCM User ID: u17848
  
 NMR 2021.105  RunTime: Nov24-2021 09:08:01  ShM Nodes: 1  Procs: 4

 Temporary files are created in /tmp/kid_0.1792031359 (0xEF53)


 Communication costs MPI_COMM_WORLD:      0.306 usec per message,   0.0033 usec per 8-byte item
 Communication costs for intra-node:      0.268 usec per message,   0.0033 usec per 8-byte item




 ======================
 RI Hartree-Fock Scheme
 ======================
  
 Fit Set Quality     : GOOD
 Integration Quality : GOOD
 Threshold Quality   : GOOD
 Response Quality    : DEFAULT
 Is Range Separated  :  F
 
 RIHartreeFock Dependency: number of modified vectors:           0
                    
                      **********************************    
                      ||******************************||    
                      ||                              ||    
                      ||  ##   ##  ###  ###  ######   ||    
                      ||  ###  ##  ########  ##   ##  ||    
                      ||  #### ##  ## ## ##  ######   ||    
                      ||  ## ####  ##    ##  ## ##    ||    
                      ||  ##  ###  ##    ##  ##  ##   ||    
                      ||  ##   ##  ##    ##  ##   ##  ||    
                      ||                              ||    
                      | ****************************** |    
                      **********************************    
                    
                            Written for ADF by              
                    
                    Stephen K. Wolff & Georg Schreckenbach  
                    
                      The research group of Tom Ziegler     
                            University of Calgary           
                               Alberta, Canada              
                    
                      Speedups, NBO analysis, g-tensors,    
                       full ZORA SO, and other goodies by   
                         Jochen Autschbach, SUNY Buffalo
                    
 =============================
 NMR Chemical shift References
 =============================
  
 Lead:
 G. Schreckenbach, T. Ziegler, J. Phys. Chem. 99 (1995) 606
  
 Speed-ups:
 J. Autschbach, E. Zurek, J. Phys. Chem. A 107 (2003), 4967
  
 Hybrids:
 M. Krykunov, T. Ziegler, E. van Lenthe, Int. J. of Quantum Chem. 109, 1676 (2009)
  
 Spin-orbit coupling:
 S.K. Wolff, T. Ziegler, E. van Lenthe, E.J. Baerends, J. Chem. Phys. 110, 7689 (1999)
 J. Autschbach, Mol. Phys. 111 (2013), 2544
  
 Paramagnetic:
 J. Autschbach, S. Patchkovskii, B. Pritchard, J. Chem. Theory Comput. 7, 2175 (2011)
  
 NBO analysis:
 J. Autschbach, J. Chem. Phys. 128 (2008), 164112
 J. Autschbach, S. Zheng, Magn. Reson. Chem. 46 (2008), S48
  
 Suggested:
 G. Schreckenbach, T. Ziegler, Int. J. Quantum Chem. 60, 753 (1996)
 G. Schreckenbach, T. Ziegler, Int. J. Quantum Chem. 61 (1997) 899
 S.K. Wolff, T. Ziegler, J. Chem. Phys. 109 (1998) 895
  
 =======================
 ESR g-tensor References
 =======================
  
 Lead:
 J. Autschbach, B. Pritchard, Theor. Chem. Acc. 129 (2011), 453
  
 Suggested:
 G. Schreckenbach, T. Ziegler, J. Phys. Chem. A 101, 3388 (1997)
 
################################################################################
 
 
################################################################################
 
 
              <><><><><><><><><><><><><><><><><><><><><><><><><>
 
                 GENERAL ADF INFORMATION:
                 ------------------------
 
                 TITLE:    *** adf ***                                  
 JOB ID:      322793183
                 NONLXC:                                                
                 SYMMETRY: NOSYM                                        
                  
                 IOPREL:   3
                 ------>  Scalar ZORA + core pot. (Re MOs)
                 ------>  Core pot used in K, Full pot used in V
 
              <><><><><><><><><><><><><><><><><><><><><><><><><>
 
              ==================================================
 
                 NUCLEAR COORDINATES (ANGSTROMS):
                 --------------------------------
 
                 P  (  1):      -0.0000      0.0000     -0.1591
                 O  (  2):      -1.3757     -0.3451      0.5312
                 O  (  3):       0.9867     -1.0189      0.5312
                 O  (  4):       0.3890      1.3639      0.5312
                 O  (  5):      -0.0000      0.0000     -1.6249
                 H  (  6):      -2.1389      0.0140      0.0634
                 H  (  7):       1.0573     -1.8593      0.0634
                 H  (  8):       1.0816      1.8453      0.0634
 
              ==================================================
 
              <><><><><><><><><><><><><><><><><><><><><><><><><>
 
                 NUMBERS:
                 --------
 
                 number of electrons:     50.00
 
                 ---   AOs   ---          ---   MOs   ---
                 ncor =     0             nocc =    25
                 nval =   194             nvir =   146
                 nbas =   194             nmo  =   171
                 naos =   194             nsot =   171
              ==================================================
                  
                 --------------------------
                     ATOM TYPE: P                        
                 --------------------------
                 === BASIS
                   1S   18.00     VALENCE
                   1S   13.35     VALENCE
                   2S    5.60     VALENCE
                   2S    4.05     VALENCE
                   2P    7.45     VALENCE
                   2P    4.10     VALENCE
                   3S    2.70     VALENCE
                   3S    1.85     VALENCE
                   3S    1.30     VALENCE
                   3P    2.30     VALENCE
                   3P    1.35     VALENCE
                   3P    0.85     VALENCE
                   3D    1.90     VALENCE
                   4F    2.00     VALENCE
                  
                 --------------------------
                     ATOM TYPE: O                        
                 --------------------------
                 === BASIS
                   1S    9.80     VALENCE
                   1S    6.80     VALENCE
                   2S    7.58     VALENCE
                   2S    2.88     VALENCE
                   2S    1.72     VALENCE
                   2P    4.08     VALENCE
                   2P    2.08     VALENCE
                   2P    1.12     VALENCE
                   3D    2.00     VALENCE
                   4F    3.00     VALENCE
                  
                 --------------------------
                     ATOM TYPE: H                        
                 --------------------------
                 === BASIS
                   1S    0.69     VALENCE
                   1S    0.92     VALENCE
                   1S    1.58     VALENCE
                   2P    1.25     VALENCE
                   3D    2.50     VALENCE
                  
              ==================================================
              <><><><><><><><><><><><><><><><><><><><><><><><><>
 
                 TENSOR INFORMATION:
                 -------------------
 
                              CALC                   U1K
 
                 paramagnetic  = T     mass-velocity = F
                 diamagnetic   = T     Darwin        = F
                 Fermi-cont.   = F     Zeeman        = F
                 ZORA SO       = F     ZORA SO       = F
                 ZORA SCALE    = F     ZORA SO FULL  = F
                 ZORA SO 1C    = F     E IN U1 SCL   = F
 
              <><><><><><><><><><><><><><><><><><><><><><><><><>
 
              <><><><><><><><><><><><><><><><><><><><><><><><><>
 
                 OUTPUT SWITCHES:
                 ----------------
 
                           ISO = T                F1 = F
                          TENS = T                S1 = F
                           EIG = F                U1 = F
                           AOP = F                B1 = F
                           AOD = F                F  = F
                           AOF = F                 S = F
                          INFO = F              REFS = F
 
              <><><><><><><><><><><><><><><><><><><><><><><><><>
 
              --------------------------------------------------
 
                 CALCULATE THE POTENTIAL? F
                  
                 ---> Potential is already on TAPE10.
                      It will not be re-calculated.
 
              --------------------------------------------------



 ===========================
 L I N E A R   S C A L I N G
 ===========================
  

 Overlap cut-off criterion AO matrix elements:     0.1000000000E-07
 ========================
 STARTING A NEW SCF. Step            1
 CRIT   1.00000000000000     
 CRIT   1.00000000000000     
 CRIT   1.00000000000000     
 ========================
 STARTING A NEW SCF. Step            2
 CRIT  9.813379046225970E-003
 CRIT  9.807593045527510E-003
 CRIT  7.924604659899729E-003
 ========================
 STARTING A NEW SCF. Step            3
 CRIT  6.596009584249779E-004
 CRIT  6.589448352050212E-004
 CRIT  6.233077343107922E-004
 ========================
 STARTING A NEW SCF. Step            4
 CRIT  4.233758160667224E-005
 CRIT  4.227870497232110E-005
 CRIT  3.916647056504945E-005
 ========================
 STARTING A NEW SCF. Step            5
 CRIT  2.973305455368175E-006
 CRIT  2.967057501485820E-006
 CRIT  2.783079960842413E-006
 ========================
 STARTING A NEW SCF. Step            6
 CRIT  1.897123718546976E-007
 CRIT  1.893137544543217E-007
 CRIT  1.885177956600798E-007
################################################################################
********************************************************************************
****  N U C L E U S : P(1)
 
 ADF-GUI atom: P(1)
 Internal NMR numbering of atoms: P(1)
 
 
================================================================================
 
 
===  PARAMAGNETIC NMR SHIELDING TENSORS (ppm)
 
    ===     paramagnetic b^(1) tensor       ===     paramagnetic u^(1) tensor
    -----------------------------------     -----------------------------------
           0.000     0.000     0.000            -617.228    -0.029     0.020
           0.000     0.000     0.000              -0.029  -617.223    -0.009
           0.000     0.000     0.000               0.020    -0.009  -465.416
    -----------------------------------     -----------------------------------
              isotropic =      0.000                  isotropic =   -566.622

    ===     paramagnetic s^(1) tensor       ===     paramagnetic gauge tensor
    -----------------------------------     -----------------------------------
         -77.605    -0.005     0.000              -4.197    -0.000    -0.001
          -0.005   -77.621    -0.020              -0.000    -4.198    -0.001
           0.000    -0.020   -46.782              -0.001    -0.001    -2.349
    -----------------------------------     -----------------------------------
              isotropic =    -67.336                  isotropic =     -3.581

                        ***********************************
                        CARTESIAN AXIS REPRESENTATION

                        ==== total paramagnetic tensor
                        -----------------------------------
                            -699.029    -0.034     0.019
                              -0.034  -699.042    -0.030
                               0.019    -0.030  -514.548
                        -----------------------------------
                                  isotropic =   -637.540

                        ***********************************
                        -----------------------------------
                        PRINCIPAL AXIS REPRESENTATION

                        ==== Principal components:

                            -699.071  -699.001  -514.548
 
                        ==== Principal Axis System:

                               0.640     0.769     0.000
                               0.769    -0.640    -0.000
                               0.000    -0.000     1.000
                        -----------------------------------
 
================================================================================
 
 
===  DIAMAGNETIC NMR SHIELDING TENSORS (ppm)
 
    ===       diamagnetic core tensor       ===    diamagnetic valence tensor
    -----------------------------------     -----------------------------------
           0.000     0.000     0.000             960.150     0.002    -0.001
           0.000     0.000     0.000               0.002   960.149     0.001
           0.000     0.000     0.000              -0.001     0.001   957.984
    -----------------------------------     -----------------------------------
              isotropic =      0.000                  isotropic =    959.428

                        ***********************************
                        CARTESIAN AXIS REPRESENTATION

                        ==== total diamagnetic tensor
                        -----------------------------------
                             960.150     0.002    -0.001
                               0.002   960.149     0.001
                              -0.001     0.001   957.984
                        -----------------------------------
                                  isotropic =    959.428

                        ***********************************
                        -----------------------------------
                        PRINCIPAL AXIS REPRESENTATION

                        ==== Principal components:

                             957.984   960.148   960.151
 
                        ==== Principal Axis System:

                               0.000     0.624     0.782
                              -0.000    -0.782     0.624
                               1.000    -0.001    -0.000
                        -----------------------------------
 
================================================================================
 
 
===  TOTAL NMR SHIELDING TENSOR (ppm)
 
                        ***********************************
                        CARTESIAN AXIS REPRESENTATION

                        ==== total shielding tensor
                        -----------------------------------
                             261.121    -0.033     0.018
                              -0.033   261.107    -0.030
                               0.018    -0.030   443.436
                        -----------------------------------
                                  isotropic =    321.888

                        ***********************************
                        -----------------------------------
                        PRINCIPAL AXIS REPRESENTATION

                        ==== Principal components:

                             261.080   261.147   443.436
 
                        ==== Principal Axis System:

                               0.633     0.774     0.000
                               0.774    -0.633    -0.000
                               0.000    -0.000     1.000
                        -----------------------------------
 *******************************************************************************

                             N M R   E X I T
 NORMAL TERMINATION



 =================
 Timing Statistics
 =================
  
 Total Used :                     CPU=       28.92      System=        0.62     Elapsed=       29.75

 Calls  Section                     ( Mean, Percentage )
 ---------------------------------------------------------------------------------------------------
     3  ><      ................      0.00    0.05             0.00    0.00             0.00    0.05
     1  INIT    ................      0.40    1.37             0.00    0.41             0.42    1.40
     1  ZAOF1K  ................     17.61   60.89             0.20   31.36            17.92   60.24
     1  ZU1K    ................      3.57   12.36             0.17   26.87             3.76   12.65
     1  ZSGP    ................      6.14   21.22             0.25   39.68             6.43   21.61
     1  ZAODKK  ................      1.19    4.11             0.00    0.62             1.19    4.01
     1  ZDV     ................      0.00    0.01             0.00    0.00             0.00    0.01
     1  ZSGD    ................      0.00    0.00             0.00    0.00             0.00    0.00
     1  ZSG     ................      0.00    0.00             0.00    0.00             0.00    0.01
     1  EXIT PROCEDURE .........      0.00    0.00             0.01    1.04             0.01    0.02


 Currently Open Files (EXIT00)
 ====================

 Unit    Access Format  Status   Type       Ident (file)
 -------------------------------------------------------
   3      SEQ    FORM   TRANSP  NORMAL      LOGFILE
                                          ( /home/milias/work/projects/open-collection/theoretical_chemistry/projects/nmr_diplomovky/reference_compounds/phosphoric_acid/ams/pbe0_tz2p_good/cosmo-chcl3/srzora/geometry_optimization/phosporic_acid.geopt_srzora_pbe0_tz2p_good_cosmo-chcl3.logfile )
