

 Parallel Execution: Process Information
 ==============================================================================
 Rank   Node Name                              NodeID   MyNodeRank  NodeMaster
    0   adf1                                      0          0          0
    1   adf1                                      0          1         -1
    2   adf1                                      0          2         -1
    3   adf1                                      0          3         -1
    4   adf1                                      0          4         -1
    5   adf1                                      0          5         -1
    6   adf1                                      0          6         -1
    7   adf1                                      0          7         -1
    8   adf1                                      0          8         -1
    9   adf1                                      0          9         -1
   10   adf1                                      0         10         -1
   11   adf1                                      0         11         -1
 ==============================================================================


May use up to 22932MB of RAM as shared memory on node 0

 *******************************************************************************
 *                                                                             *
 *  --------------------------------                                           *
 *   Amsterdam Modeling Suite (AMS)              2020.202                      *
 *  --------------------------------                                           *
 *                                               r90167 2020-12-05             *
 *                                                                             *
 *                                                                             *
 *                              =================                              *
 *                              |               |                              *
 *                              |     A M S     |                              *
 *                              |               |                              *
 *                              =================                              *
 *                                                                             *
 *                                                                             *
 *   Online information and documentation:  https://www.scm.com/support/       *
 *   E-mail:  support@scm.com   info@scm.com                                   *
 *                                                                             *
 *   Scientific publications using AMS results must be properly referenced     *
 *   See the User Manuals (or the web site) for recommended citations          *
 *   The terms and conditions of the End User License Agreement apply to       *
 *   the use of AMS, https://www.scm.com/license-terms/                        *
 *                                                                             *
 **********************  x86_64_linux_intel / intelmpi  ************************
 
 Licensed to: Dr. Miroslav Ilias / Matej Bel University, Department Chemistry, Fac. Natural Sciences / Banska Bystrica / SLOVAKIA
 SCM User ID: u17848
  
 AMS 2020.202  RunTime: Feb06-2021 12:32:20  Nodes: 1  Procs: 12

 AMS jobname: ams
 AMS jobid  : 73461316

 Start   directory: /home/milias/Work/projects/open-collection/theoretical_chemistry/software_runs/ams/tddft_sozora_adf/tmp.milias.13214.0.noindex/
 Results directory: /home/milias/Work/projects/open-collection/theoretical_chemistry/software_runs/ams/tddft_sozora_adf/molecule2_tddft.results/
 Scratch directory: /tmp/amstmp_ams_kid0.73461316/


 Communication costs MPI_COMM_WORLD:      2.747 usec per message,   0.0269 usec per 8-byte item
 Communication costs for intra-node:      2.702 usec per message,   0.0269 usec per 8-byte item

 RNG seed: 612229643 495435737 1970990997 1102433926 13571108 108132942 -847322705 -1709564949



                       *********************************************************************
                       *  ADF 2020.202  RunTime: Feb06-2021 12:32:21  Nodes: 1  Procs: 12  *
                       *********************************************************************
  
       ****************************
       * SINGLE POINT CALCULATION *
       ****************************
 
--------
Geometry
--------
Atoms
  Index Symbol   x (angstrom)   y (angstrom)   z (angstrom)
      1      C    -0.51298200     3.57291700    -1.10908800       adf.R=1.700
      2      C     0.73536600     3.14021900    -0.64097600       adf.R=1.700
      3      C     1.67405100     4.03751000    -0.14119400       adf.R=1.700
      4      C     1.34512300     5.39101200    -0.17733400       adf.R=1.700
      5      C     0.11649800     5.83627100    -0.67976100       adf.R=1.700
      6      C    -0.82800400     4.92482800    -1.14381100       adf.R=1.700
      7      C    -1.30500300     2.39366200    -1.48644500       adf.R=1.700
      8      C    -0.42392300     1.25761000    -1.21172500       adf.R=1.700
      9      H     2.62211600     3.71147900     0.26935800       adf.R=1.350
     10      H     2.06188200     6.11412900     0.19879800       adf.R=1.350
     11      H    -0.10432000     6.89871200    -0.69006400       adf.R=1.350
     12      H    -1.79715400     5.24656100    -1.51139200       adf.R=1.350
     13      C    -0.57590100    -0.09322800    -1.57521900       adf.R=1.700
     14      C     0.46446800    -0.95041100    -2.19587500       adf.R=1.700
     15      C    -0.17953100    -2.26446300    -2.31661300       adf.R=1.700
     16      C    -1.49989900    -2.14274800    -1.85974900       adf.R=1.700
     17      C     0.28504400    -3.47534600    -2.81274400       adf.R=1.700
     18      C    -2.37652400    -3.22050800    -1.85845000       adf.R=1.700
     19      C    -0.58201900    -4.56578000    -2.81630600       adf.R=1.700
     20      H     1.30517100    -3.56055900    -3.17332300       adf.R=1.350
     21      C    -1.89252000    -4.43568400    -2.34137900       adf.R=1.700
     22      H    -3.39707700    -3.13819300    -1.49972500       adf.R=1.350
     23      H    -0.23958100    -5.52783800    -3.18358500       adf.R=1.350
     24      H    -2.55114700    -5.29845900    -2.34831200       adf.R=1.350
     25      O    -2.45186900     2.36749700    -1.94732300       adf.R=1.517
     26      O     1.58386800    -0.59497900    -2.56132900       adf.R=1.517
     27      N    -1.72420800    -0.82355300    -1.45168100       adf.R=1.608
     28      N     0.78257000     1.73876500    -0.71769400       adf.R=1.608
     29      C    -2.90527000    -0.40266700    -0.74082000       adf.R=1.700
     30      H    -3.08768500     0.65622300    -0.94850500       adf.R=1.350
     31      H    -3.77183000    -0.94907400    -1.11937400       adf.R=1.350
     32      C    -2.77951500    -0.62517500     0.76261900       adf.R=1.700
     33      O    -1.76740500    -0.99940700     1.31098900       adf.R=1.517
     34      O    -3.93391600    -0.32719300     1.33991800       adf.R=1.517
     35      C    -4.10854700    -0.36894300     2.79965800       adf.R=1.700
     36      C    -3.91374000    -1.79713600     3.30167100       adf.R=1.700
     37      C    -3.15115700     0.61925400     3.46087800       adf.R=1.700
     38      C    -5.55599800     0.07744800     2.97533700       adf.R=1.700
     39      H    -4.57295000    -2.48362800     2.76081700       adf.R=1.350
     40      H    -2.88007400    -2.12426700     3.17946100       adf.R=1.350
     41      H    -4.17205100    -1.84201400     4.36443800       adf.R=1.350
     42      H    -3.26941300     1.61463600     3.02108900       adf.R=1.350
     43      H    -3.38638500     0.68641600     4.52771300       adf.R=1.350
     44      H    -2.11272400     0.30227600     3.35269600       adf.R=1.350
     45      H    -5.81346100     0.08629500     4.03863700       adf.R=1.350
     46      H    -5.70051400     1.08453900     2.57319100       adf.R=1.350
     47      H    -6.23608900    -0.60621100     2.45844900       adf.R=1.350
     48      C     1.75834600     0.94457400    -0.07819700       adf.R=1.700
     49      C     1.35744500    -0.09665500     0.76150700       adf.R=1.700
     50      C     3.11495200     1.19076600    -0.31036300       adf.R=1.700
     51      C     2.32370000    -0.89338700     1.36573300       adf.R=1.700
     52      C     4.06724100     0.40071000     0.30682000       adf.R=1.700
     53      C     3.67261500    -0.64483100     1.14608600       adf.R=1.700
     54      H     0.30539200    -0.27383300     0.95830900       adf.R=1.350
     55      H     3.41316300     1.95850900    -1.01495600       adf.R=1.350
     56      H     2.01516000    -1.70203300     2.01837600       adf.R=1.350
     57      H     5.12026300     0.58116500     0.11954100       adf.R=1.350
     58      C     4.72354900    -1.52678500     1.75883100       adf.R=1.700
     59      F     5.78163400    -0.81288600     2.18609600       adf.R=1.425
     60      F     4.25633200    -2.21915500     2.81054000       adf.R=1.425
     61      F     5.19627500    -2.42427500     0.87418800       adf.R=1.425
 
Total System Charge             0.00000
Bonding info available!
 
 
----------------
ADF Engine Input
----------------
 
 Basis
 Type TZ2P
 Core None
 End
 AllPoints Yes
 XC
 GGA BP86
 End
 Solvation
 Surf Delley
 Solv name=Acetone cav0=0.0 cav1=0.0067639
 Charged method=CONJ
 C-Mat POT
 SCF VAR ALL
 CSMRSP
 End
 SOPERT
 END
 EXCITATIONS
 Davidson
 End
 NTO
 END
 

 Title: *** (NO TITLE) ***

 *** adf ***



 ===========================
 A T T A C H E D   F I L E S
 ===========================
  



 ===============================
 M O D E L   P A R A M E T E R S
 ===============================
  
 DENSITY FUNCTIONAL POTENTIAL (scf)
    LDA:                               VWN                                      
    Gradient Corrections:              Becke88 Perdew86                        == Not Default ==

 SPIN  (restricted / unrestr.)
    Molecule:                          Restricted                               
    Fragments:                         Restricted                               

 OTHER ASPECTS
    Relativistic Corrections:          scalar (ZORA,MAPA)                       

    Nuclear Charge Density Model:      Point Charge Nuclei                      
    Core Treatment:                    Frozen Orbital(s)                        

    Hyperfine or Zeeman Interaction:   ---                                      

 SOLVATION
-------------------------------------------

  The Delley construction of COSMO surface surface is calculated

       Division Level for Surface Triangles (NDIV)                  3
       Final Division Level for Triangles (NFDIV)                   1
       Radius of the Solvent (RSOL)                           3.08000 angstr
  Dielectric Constant (EPSL)                                 20.70000

       COSMO equation is solved iteratively-               conjugate-gradient

       Maximun of Iterations for Charges (NCIX)                  1000
       Criterion for Charge convergence (CCNV)                1.0E-08

  COSMO charges included variationally in SCF

       COSMO included at every SCF cycle

  Geometry-dependent empirical factor                         0.00000

  C-Matrix calculated in cspmtx

  In cspmtx, C-Matrix calculated using fitted potential

-------------------------------------------



 Fragment File(s)
 ----------------
 C:
         file : /home/milias/Work/projects/open-collection/theoretical_chemistry/software_runs/ams/tddft_sozora_adf/molecule2_tddft.results/t21.5D752727.C
         jobid: 0
         title: Carbon (TZ2P)
 H:
         file : /home/milias/Work/projects/open-collection/theoretical_chemistry/software_runs/ams/tddft_sozora_adf/molecule2_tddft.results/t21.625BD7F.H
         jobid: 0
         title: Hydrogen (TZ2P)
 O:
         file : /home/milias/Work/projects/open-collection/theoretical_chemistry/software_runs/ams/tddft_sozora_adf/molecule2_tddft.results/t21.7D43B210.O
         jobid: 0
         title: Oxygen (TZ2P)
 N:
         file : /home/milias/Work/projects/open-collection/theoretical_chemistry/software_runs/ams/tddft_sozora_adf/molecule2_tddft.results/t21.7CC08F8D.N
         jobid: 0
         title: Nitrogen (TZ2P)
 F:
         file : /home/milias/Work/projects/open-collection/theoretical_chemistry/software_runs/ams/tddft_sozora_adf/molecule2_tddft.results/t21.5235940A.F
         jobid: 0
         title: Fluorine (TZ2P)



 ===============
 G E O M E T R Y  ***  3D  Molecule  ***
 ===============
  

 ATOMS
 =====                            X Y Z                    CHARGE                     RADIUS
                                (Angstrom)             Nucl     +Core       At.Mass (Angstrom)
                       --------------------------    ----------------       ------- ----------
    1  C              -0.5130    3.5729   -1.1091      6.00      6.00       12.0000    1.7000
    2  C               0.7354    3.1402   -0.6410      6.00      6.00       12.0000    1.7000
    3  C               1.6741    4.0375   -0.1412      6.00      6.00       12.0000    1.7000
    4  C               1.3451    5.3910   -0.1773      6.00      6.00       12.0000    1.7000
    5  C               0.1165    5.8363   -0.6798      6.00      6.00       12.0000    1.7000
    6  C              -0.8280    4.9248   -1.1438      6.00      6.00       12.0000    1.7000
    7  C              -1.3050    2.3937   -1.4864      6.00      6.00       12.0000    1.7000
    8  C              -0.4239    1.2576   -1.2117      6.00      6.00       12.0000    1.7000
    9  H               2.6221    3.7115    0.2694      1.00      1.00        1.0078    1.3500
   10  H               2.0619    6.1141    0.1988      1.00      1.00        1.0078    1.3500
   11  H              -0.1043    6.8987   -0.6901      1.00      1.00        1.0078    1.3500
   12  H              -1.7972    5.2466   -1.5114      1.00      1.00        1.0078    1.3500
   13  C              -0.5759   -0.0932   -1.5752      6.00      6.00       12.0000    1.7000
   14  C               0.4645   -0.9504   -2.1959      6.00      6.00       12.0000    1.7000
   15  C              -0.1795   -2.2645   -2.3166      6.00      6.00       12.0000    1.7000
   16  C              -1.4999   -2.1427   -1.8597      6.00      6.00       12.0000    1.7000
   17  C               0.2850   -3.4753   -2.8127      6.00      6.00       12.0000    1.7000
   18  C              -2.3765   -3.2205   -1.8584      6.00      6.00       12.0000    1.7000
   19  C              -0.5820   -4.5658   -2.8163      6.00      6.00       12.0000    1.7000
   20  H               1.3052   -3.5606   -3.1733      1.00      1.00        1.0078    1.3500
   21  C              -1.8925   -4.4357   -2.3414      6.00      6.00       12.0000    1.7000
   22  H              -3.3971   -3.1382   -1.4997      1.00      1.00        1.0078    1.3500
   23  H              -0.2396   -5.5278   -3.1836      1.00      1.00        1.0078    1.3500
   24  H              -2.5511   -5.2985   -2.3483      1.00      1.00        1.0078    1.3500
   25  O              -2.4519    2.3675   -1.9473      8.00      8.00       15.9949    1.5170
   26  O               1.5839   -0.5950   -2.5613      8.00      8.00       15.9949    1.5170
   27  N              -1.7242   -0.8236   -1.4517      7.00      7.00       14.0031    1.6080
   28  N               0.7826    1.7388   -0.7177      7.00      7.00       14.0031    1.6080
   29  C              -2.9053   -0.4027   -0.7408      6.00      6.00       12.0000    1.7000
   30  H              -3.0877    0.6562   -0.9485      1.00      1.00        1.0078    1.3500
   31  H              -3.7718   -0.9491   -1.1194      1.00      1.00        1.0078    1.3500
   32  C              -2.7795   -0.6252    0.7626      6.00      6.00       12.0000    1.7000
   33  O              -1.7674   -0.9994    1.3110      8.00      8.00       15.9949    1.5170
   34  O              -3.9339   -0.3272    1.3399      8.00      8.00       15.9949    1.5170
   35  C              -4.1085   -0.3689    2.7997      6.00      6.00       12.0000    1.7000
   36  C              -3.9137   -1.7971    3.3017      6.00      6.00       12.0000    1.7000
   37  C              -3.1512    0.6193    3.4609      6.00      6.00       12.0000    1.7000
   38  C              -5.5560    0.0774    2.9753      6.00      6.00       12.0000    1.7000
   39  H              -4.5729   -2.4836    2.7608      1.00      1.00        1.0078    1.3500
   40  H              -2.8801   -2.1243    3.1795      1.00      1.00        1.0078    1.3500
   41  H              -4.1721   -1.8420    4.3644      1.00      1.00        1.0078    1.3500
   42  H              -3.2694    1.6146    3.0211      1.00      1.00        1.0078    1.3500
   43  H              -3.3864    0.6864    4.5277      1.00      1.00        1.0078    1.3500
   44  H              -2.1127    0.3023    3.3527      1.00      1.00        1.0078    1.3500
   45  H              -5.8135    0.0863    4.0386      1.00      1.00        1.0078    1.3500
   46  H              -5.7005    1.0845    2.5732      1.00      1.00        1.0078    1.3500
   47  H              -6.2361   -0.6062    2.4584      1.00      1.00        1.0078    1.3500
   48  C               1.7583    0.9446   -0.0782      6.00      6.00       12.0000    1.7000
   49  C               1.3574   -0.0967    0.7615      6.00      6.00       12.0000    1.7000
   50  C               3.1150    1.1908   -0.3104      6.00      6.00       12.0000    1.7000
   51  C               2.3237   -0.8934    1.3657      6.00      6.00       12.0000    1.7000
   52  C               4.0672    0.4007    0.3068      6.00      6.00       12.0000    1.7000
   53  C               3.6726   -0.6448    1.1461      6.00      6.00       12.0000    1.7000
   54  H               0.3054   -0.2738    0.9583      1.00      1.00        1.0078    1.3500
   55  H               3.4132    1.9585   -1.0150      1.00      1.00        1.0078    1.3500
   56  H               2.0152   -1.7020    2.0184      1.00      1.00        1.0078    1.3500
   57  H               5.1203    0.5812    0.1195      1.00      1.00        1.0078    1.3500
   58  C               4.7235   -1.5268    1.7588      6.00      6.00       12.0000    1.7000
   59  F               5.7816   -0.8129    2.1861      9.00      9.00       18.9984    1.4250
   60  F               4.2563   -2.2192    2.8105      9.00      9.00       18.9984    1.4250
   61  F               5.1963   -2.4243    0.8742      9.00      9.00       18.9984    1.4250


 FRAGMENTS
 =========                                     Atoms in this Fragment     Cart. coord.s (Angstrom)
                                               -------------------------------------------------------
    1  C                                                 1  C           -0.5130    3.5729   -1.1091
    2  C                                                 2  C            0.7354    3.1402   -0.6410
    3  C                                                 3  C            1.6741    4.0375   -0.1412
    4  C                                                 4  C            1.3451    5.3910   -0.1773
    5  C                                                 5  C            0.1165    5.8363   -0.6798
    6  C                                                 6  C           -0.8280    4.9248   -1.1438
    7  C                                                 7  C           -1.3050    2.3937   -1.4864
    8  C                                                 8  C           -0.4239    1.2576   -1.2117
    9  C                                                13  C           -0.5759   -0.0932   -1.5752
   10  C                                                14  C            0.4645   -0.9504   -2.1959
   11  C                                                15  C           -0.1795   -2.2645   -2.3166
   12  C                                                16  C           -1.4999   -2.1427   -1.8597
   13  C                                                17  C            0.2850   -3.4753   -2.8127
   14  C                                                18  C           -2.3765   -3.2205   -1.8584
   15  C                                                19  C           -0.5820   -4.5658   -2.8163
   16  C                                                21  C           -1.8925   -4.4357   -2.3414
   17  C                                                29  C           -2.9053   -0.4027   -0.7408
   18  C                                                32  C           -2.7795   -0.6252    0.7626
   19  C                                                35  C           -4.1085   -0.3689    2.7997
   20  C                                                36  C           -3.9137   -1.7971    3.3017
   21  C                                                37  C           -3.1512    0.6193    3.4609
   22  C                                                38  C           -5.5560    0.0774    2.9753
   23  C                                                48  C            1.7583    0.9446   -0.0782
   24  C                                                49  C            1.3574   -0.0967    0.7615
   25  C                                                50  C            3.1150    1.1908   -0.3104
   26  C                                                51  C            2.3237   -0.8934    1.3657
   27  C                                                52  C            4.0672    0.4007    0.3068
   28  C                                                53  C            3.6726   -0.6448    1.1461
   29  C                                                58  C            4.7235   -1.5268    1.7588
   30  H                                                 9  H            2.6221    3.7115    0.2694
   31  H                                                10  H            2.0619    6.1141    0.1988
   32  H                                                11  H           -0.1043    6.8987   -0.6901
   33  H                                                12  H           -1.7972    5.2466   -1.5114
   34  H                                                20  H            1.3052   -3.5606   -3.1733
   35  H                                                22  H           -3.3971   -3.1382   -1.4997
   36  H                                                23  H           -0.2396   -5.5278   -3.1836
   37  H                                                24  H           -2.5511   -5.2985   -2.3483
   38  H                                                30  H           -3.0877    0.6562   -0.9485
   39  H                                                31  H           -3.7718   -0.9491   -1.1194
   40  H                                                39  H           -4.5729   -2.4836    2.7608
   41  H                                                40  H           -2.8801   -2.1243    3.1795
   42  H                                                41  H           -4.1721   -1.8420    4.3644
   43  H                                                42  H           -3.2694    1.6146    3.0211
   44  H                                                43  H           -3.3864    0.6864    4.5277
   45  H                                                44  H           -2.1127    0.3023    3.3527
   46  H                                                45  H           -5.8135    0.0863    4.0386
   47  H                                                46  H           -5.7005    1.0845    2.5732
   48  H                                                47  H           -6.2361   -0.6062    2.4584
   49  H                                                54  H            0.3054   -0.2738    0.9583
   50  H                                                55  H            3.4132    1.9585   -1.0150
   51  H                                                56  H            2.0152   -1.7020    2.0184
   52  H                                                57  H            5.1203    0.5812    0.1195
   53  O                                                25  O           -2.4519    2.3675   -1.9473
   54  O                                                26  O            1.5839   -0.5950   -2.5613
   55  O                                                33  O           -1.7674   -0.9994    1.3110
   56  O                                                34  O           -3.9339   -0.3272    1.3399
   57  N                                                27  N           -1.7242   -0.8236   -1.4517
   58  N                                                28  N            0.7826    1.7388   -0.7177
   59  F                                                59  F            5.7816   -0.8129    2.1861
   60  F                                                60  F            4.2563   -2.2192    2.8105
   61  F                                                61  F            5.1963   -2.4243    0.8742



 =====================================
 S Y M M E T R Y ,   E L E C T R O N S
 =====================================
  
 Symmetry: NOSYM

 Irreducible Representations, including subspecies
 -------------------------------------------------
 A


 Configuration of Valence Electrons
 ==================================
 ( determined in the SCF procedure )

 Total:   270

 Net Charge: 0 (Nuclei minus Electrons)

 Aufbau principle for MO occupations will be applied through SCF cycle no.     150
 Thereafter, the program will assign electrons to MOs that are spatially
 similar to the occupied MOs in a "reference" cycle ("KeepOrbitals").
 The reference cycle is always the PREVIOUS cycle: it will evolve with
 the SCF procedure.
1
 ***************************************************************************************************



                                      ****************************************
                                      *  B U I L D : (Fragments, Functions)  *
                                      ****************************************
  

 Total nr. of (C)SFOs (summation over all irreps) :  1241

 Specify PRINT SFO in the input file to get a full list

 Nr. of SFOs for ir.rep.           A :  1241



 ================================
 (Slater-type)  F U N C T I O N S  ***  (Basis and Fit)  ***
 ================================
  

 Atom Type    1  (C)
 ==============

 Valence Basis Sets:  10
 -----------------------
   1 S    7.680000
   1 S    5.000000
   2 S    1.280000
   2 S    2.100000
   2 S    4.600000
   2 P    0.820000
   2 P    1.480000
   2 P    2.940000
   3 D    2.200000
   4 F    3.300000

 Atom Type    2  (H)
 ==============

 Valence Basis Sets:   5
 -----------------------
   1 S    0.690000
   1 S    0.920000
   1 S    1.580000
   2 P    1.250000
   3 D    2.500000

 Atom Type    3  (O)
 ==============

 Valence Basis Sets:  10
 -----------------------
   1 S    9.800000
   1 S    6.800000
   2 S    7.580000
   2 S    2.880000
   2 S    1.720000
   2 P    4.080000
   2 P    2.080000
   2 P    1.120000
   3 D    2.000000
   4 F    3.000000

 Atom Type    4  (N)
 ==============

 Valence Basis Sets:  10
 -----------------------
   1 S    8.740000
   1 S    5.900000
   2 S    5.150000
   2 S    2.500000
   2 S    1.500000
   2 P    3.680000
   2 P    1.880000
   2 P    1.000000
   3 D    2.200000
   4 F    3.300000

 Atom Type    5  (F)
 ==============

 Valence Basis Sets:  10
 -----------------------
   1 S   10.880000
   1 S    7.700000
   2 S    3.240000
   2 S    1.940000
   2 S    0.740000
   2 P    4.540000
   2 P    2.300000
   2 P    1.240000
   3 D    2.000000
   4 F    3.000000


 BAS: List of all Elementary Cartesian Basis Functions
 =====================================================

 The numbering in the list below (to the right of the function characteristics) is referred
 to in print-outs of MO eigenvectors and Mulliken populations in the BAS representation
 (as contrasted to the SFO representation).

 Notes:
 1. The functions are characterized by a polynomial prefactor (powers of x,y,z and r) and
    an exponential decay factor alpha.
 2. Since the basis sets are specific for an atom TYPE, the individual functions occur on
    all atoms of that type.
 3. The word 'Core' in the left margin signals that it is a Core Function (CF) : not a
    degree of freedom in the valence set, but only used to ensure orthogonalization of
    the other valence basis functions on the frozen Core Orbitals.


 (power of) X  Y  Z  R     Alpha  on Atom
            ==========     =====     ==========

 C                                    1    2    3    4    5    6    7    8    9   10   11   12   13   14   15
                                     16   17   18   19   20   21   22   23   24   25   26   27   28   29
                                  ---------------------------------------------------------------------------
            0  0  0  0     7.680      1   31   61   91  121  151  181  211  241  271  301  331  361  391  421
                                    451  481  511  541  571  601  631  661  691  721  751  781  811  841
            0  0  0  0     5.000      2   32   62   92  122  152  182  212  242  272  302  332  362  392  422
                                    452  482  512  542  572  602  632  662  692  722  752  782  812  842
            0  0  0  1     1.280      3   33   63   93  123  153  183  213  243  273  303  333  363  393  423
                                    453  483  513  543  573  603  633  663  693  723  753  783  813  843
            0  0  0  1     2.100      4   34   64   94  124  154  184  214  244  274  304  334  364  394  424
                                    454  484  514  544  574  604  634  664  694  724  754  784  814  844
            0  0  0  1     4.600      5   35   65   95  125  155  185  215  245  275  305  335  365  395  425
                                    455  485  515  545  575  605  635  665  695  725  755  785  815  845
            1  0  0  0     0.820      6   36   66   96  126  156  186  216  246  276  306  336  366  396  426
                                    456  486  516  546  576  606  636  666  696  726  756  786  816  846
            0  1  0  0     0.820      7   37   67   97  127  157  187  217  247  277  307  337  367  397  427
                                    457  487  517  547  577  607  637  667  697  727  757  787  817  847
            0  0  1  0     0.820      8   38   68   98  128  158  188  218  248  278  308  338  368  398  428
                                    458  488  518  548  578  608  638  668  698  728  758  788  818  848
            1  0  0  0     1.480      9   39   69   99  129  159  189  219  249  279  309  339  369  399  429
                                    459  489  519  549  579  609  639  669  699  729  759  789  819  849
            0  1  0  0     1.480     10   40   70  100  130  160  190  220  250  280  310  340  370  400  430
                                    460  490  520  550  580  610  640  670  700  730  760  790  820  850
            0  0  1  0     1.480     11   41   71  101  131  161  191  221  251  281  311  341  371  401  431
                                    461  491  521  551  581  611  641  671  701  731  761  791  821  851
            1  0  0  0     2.940     12   42   72  102  132  162  192  222  252  282  312  342  372  402  432
                                    462  492  522  552  582  612  642  672  702  732  762  792  822  852
            0  1  0  0     2.940     13   43   73  103  133  163  193  223  253  283  313  343  373  403  433
                                    463  493  523  553  583  613  643  673  703  733  763  793  823  853
            0  0  1  0     2.940     14   44   74  104  134  164  194  224  254  284  314  344  374  404  434
                                    464  494  524  554  584  614  644  674  704  734  764  794  824  854
            2  0  0  0     2.200     15   45   75  105  135  165  195  225  255  285  315  345  375  405  435
                                    465  495  525  555  585  615  645  675  705  735  765  795  825  855
            1  1  0  0     2.200     16   46   76  106  136  166  196  226  256  286  316  346  376  406  436
                                    466  496  526  556  586  616  646  676  706  736  766  796  826  856
            1  0  1  0     2.200     17   47   77  107  137  167  197  227  257  287  317  347  377  407  437
                                    467  497  527  557  587  617  647  677  707  737  767  797  827  857
            0  2  0  0     2.200     18   48   78  108  138  168  198  228  258  288  318  348  378  408  438
                                    468  498  528  558  588  618  648  678  708  738  768  798  828  858
            0  1  1  0     2.200     19   49   79  109  139  169  199  229  259  289  319  349  379  409  439
                                    469  499  529  559  589  619  649  679  709  739  769  799  829  859
            0  0  2  0     2.200     20   50   80  110  140  170  200  230  260  290  320  350  380  410  440
                                    470  500  530  560  590  620  650  680  710  740  770  800  830  860
            3  0  0  0     3.300     21   51   81  111  141  171  201  231  261  291  321  351  381  411  441
                                    471  501  531  561  591  621  651  681  711  741  771  801  831  861
            2  1  0  0     3.300     22   52   82  112  142  172  202  232  262  292  322  352  382  412  442
                                    472  502  532  562  592  622  652  682  712  742  772  802  832  862
            2  0  1  0     3.300     23   53   83  113  143  173  203  233  263  293  323  353  383  413  443
                                    473  503  533  563  593  623  653  683  713  743  773  803  833  863
            1  2  0  0     3.300     24   54   84  114  144  174  204  234  264  294  324  354  384  414  444
                                    474  504  534  564  594  624  654  684  714  744  774  804  834  864
            1  1  1  0     3.300     25   55   85  115  145  175  205  235  265  295  325  355  385  415  445
                                    475  505  535  565  595  625  655  685  715  745  775  805  835  865
            1  0  2  0     3.300     26   56   86  116  146  176  206  236  266  296  326  356  386  416  446
                                    476  506  536  566  596  626  656  686  716  746  776  806  836  866
            0  3  0  0     3.300     27   57   87  117  147  177  207  237  267  297  327  357  387  417  447
                                    477  507  537  567  597  627  657  687  717  747  777  807  837  867
            0  2  1  0     3.300     28   58   88  118  148  178  208  238  268  298  328  358  388  418  448
                                    478  508  538  568  598  628  658  688  718  748  778  808  838  868
            0  1  2  0     3.300     29   59   89  119  149  179  209  239  269  299  329  359  389  419  449
                                    479  509  539  569  599  629  659  689  719  749  779  809  839  869
            0  0  3  0     3.300     30   60   90  120  150  180  210  240  270  300  330  360  390  420  450
                                    480  510  540  570  600  630  660  690  720  750  780  810  840  870

 H                                   30   31   32   33   34   35   36   37   38   39   40   41   42   43   44
                                     45   46   47   48   49   50   51   52
                                  ---------------------------------------------------------------------------
            0  0  0  0     0.690    871  883  895  907  919  931  943  955  967  979  991 1003 1015 1027 1039
                                   1051 1063 1075 1087 1099 1111 1123 1135
            0  0  0  0     0.920    872  884  896  908  920  932  944  956  968  980  992 1004 1016 1028 1040
                                   1052 1064 1076 1088 1100 1112 1124 1136
            0  0  0  0     1.580    873  885  897  909  921  933  945  957  969  981  993 1005 1017 1029 1041
                                   1053 1065 1077 1089 1101 1113 1125 1137
            1  0  0  0     1.250    874  886  898  910  922  934  946  958  970  982  994 1006 1018 1030 1042
                                   1054 1066 1078 1090 1102 1114 1126 1138
            0  1  0  0     1.250    875  887  899  911  923  935  947  959  971  983  995 1007 1019 1031 1043
                                   1055 1067 1079 1091 1103 1115 1127 1139
            0  0  1  0     1.250    876  888  900  912  924  936  948  960  972  984  996 1008 1020 1032 1044
                                   1056 1068 1080 1092 1104 1116 1128 1140
            2  0  0  0     2.500    877  889  901  913  925  937  949  961  973  985  997 1009 1021 1033 1045
                                   1057 1069 1081 1093 1105 1117 1129 1141
            1  1  0  0     2.500    878  890  902  914  926  938  950  962  974  986  998 1010 1022 1034 1046
                                   1058 1070 1082 1094 1106 1118 1130 1142
            1  0  1  0     2.500    879  891  903  915  927  939  951  963  975  987  999 1011 1023 1035 1047
                                   1059 1071 1083 1095 1107 1119 1131 1143
            0  2  0  0     2.500    880  892  904  916  928  940  952  964  976  988 1000 1012 1024 1036 1048
                                   1060 1072 1084 1096 1108 1120 1132 1144
            0  1  1  0     2.500    881  893  905  917  929  941  953  965  977  989 1001 1013 1025 1037 1049
                                   1061 1073 1085 1097 1109 1121 1133 1145
            0  0  2  0     2.500    882  894  906  918  930  942  954  966  978  990 1002 1014 1026 1038 1050
                                   1062 1074 1086 1098 1110 1122 1134 1146

 O                                   53   54   55   56
                                  ---------------------------------------------------------------------------
            0  0  0  0     9.800   1147 1177 1207 1237
            0  0  0  0     6.800   1148 1178 1208 1238
            0  0  0  1     7.580   1149 1179 1209 1239
            0  0  0  1     2.880   1150 1180 1210 1240
            0  0  0  1     1.720   1151 1181 1211 1241
            1  0  0  0     4.080   1152 1182 1212 1242
            0  1  0  0     4.080   1153 1183 1213 1243
            0  0  1  0     4.080   1154 1184 1214 1244
            1  0  0  0     2.080   1155 1185 1215 1245
            0  1  0  0     2.080   1156 1186 1216 1246
            0  0  1  0     2.080   1157 1187 1217 1247
            1  0  0  0     1.120   1158 1188 1218 1248
            0  1  0  0     1.120   1159 1189 1219 1249
            0  0  1  0     1.120   1160 1190 1220 1250
            2  0  0  0     2.000   1161 1191 1221 1251
            1  1  0  0     2.000   1162 1192 1222 1252
            1  0  1  0     2.000   1163 1193 1223 1253
            0  2  0  0     2.000   1164 1194 1224 1254
            0  1  1  0     2.000   1165 1195 1225 1255
            0  0  2  0     2.000   1166 1196 1226 1256
            3  0  0  0     3.000   1167 1197 1227 1257
            2  1  0  0     3.000   1168 1198 1228 1258
            2  0  1  0     3.000   1169 1199 1229 1259
            1  2  0  0     3.000   1170 1200 1230 1260
            1  1  1  0     3.000   1171 1201 1231 1261
            1  0  2  0     3.000   1172 1202 1232 1262
            0  3  0  0     3.000   1173 1203 1233 1263
            0  2  1  0     3.000   1174 1204 1234 1264
            0  1  2  0     3.000   1175 1205 1235 1265
            0  0  3  0     3.000   1176 1206 1236 1266

 N                                   57   58
                                  ---------------------------------------------------------------------------
            0  0  0  0     8.740   1267 1297
            0  0  0  0     5.900   1268 1298
            0  0  0  1     5.150   1269 1299
            0  0  0  1     2.500   1270 1300
            0  0  0  1     1.500   1271 1301
            1  0  0  0     3.680   1272 1302
            0  1  0  0     3.680   1273 1303
            0  0  1  0     3.680   1274 1304
            1  0  0  0     1.880   1275 1305
            0  1  0  0     1.880   1276 1306
            0  0  1  0     1.880   1277 1307
            1  0  0  0     1.000   1278 1308
            0  1  0  0     1.000   1279 1309
            0  0  1  0     1.000   1280 1310
            2  0  0  0     2.200   1281 1311
            1  1  0  0     2.200   1282 1312
            1  0  1  0     2.200   1283 1313
            0  2  0  0     2.200   1284 1314
            0  1  1  0     2.200   1285 1315
            0  0  2  0     2.200   1286 1316
            3  0  0  0     3.300   1287 1317
            2  1  0  0     3.300   1288 1318
            2  0  1  0     3.300   1289 1319
            1  2  0  0     3.300   1290 1320
            1  1  1  0     3.300   1291 1321
            1  0  2  0     3.300   1292 1322
            0  3  0  0     3.300   1293 1323
            0  2  1  0     3.300   1294 1324
            0  1  2  0     3.300   1295 1325
            0  0  3  0     3.300   1296 1326

 F                                   59   60   61
                                  ---------------------------------------------------------------------------
            0  0  0  0    10.880   1327 1357 1387
            0  0  0  0     7.700   1328 1358 1388
            0  0  0  1     3.240   1329 1359 1389
            0  0  0  1     1.940   1330 1360 1390
            0  0  0  1     0.740   1331 1361 1391
            1  0  0  0     4.540   1332 1362 1392
            0  1  0  0     4.540   1333 1363 1393
            0  0  1  0     4.540   1334 1364 1394
            1  0  0  0     2.300   1335 1365 1395
            0  1  0  0     2.300   1336 1366 1396
            0  0  1  0     2.300   1337 1367 1397
            1  0  0  0     1.240   1338 1368 1398
            0  1  0  0     1.240   1339 1369 1399
            0  0  1  0     1.240   1340 1370 1400
            2  0  0  0     2.000   1341 1371 1401
            1  1  0  0     2.000   1342 1372 1402
            1  0  1  0     2.000   1343 1373 1403
            0  2  0  0     2.000   1344 1374 1404
            0  1  1  0     2.000   1345 1375 1405
            0  0  2  0     2.000   1346 1376 1406
            3  0  0  0     3.000   1347 1377 1407
            2  1  0  0     3.000   1348 1378 1408
            2  0  1  0     3.000   1349 1379 1409
            1  2  0  0     3.000   1350 1380 1410
            1  1  1  0     3.000   1351 1381 1411
            1  0  2  0     3.000   1352 1382 1412
            0  3  0  0     3.000   1353 1383 1413
            0  2  1  0     3.000   1354 1384 1414
            0  1  2  0     3.000   1355 1385 1415
            0  0  3  0     3.000   1356 1386 1416

 Total number of charge fitting functions (nprimf)      4345
 Total number of Cartesian basis functions (naos)       1416
 Total number of Cartesian core functions  (ncos)          0

1
 ***************************************************************************************************



                                              ***********************
                                              *  T E C H N I C A L  *
                                              ***********************
  



 =============================================================
 P A R A L L E L I Z A T I O N  and  V E C T O R I Z A T I O N
 =============================================================
  
 Nr of parallel processes:                               12
 Maximum vector length in NumInt loops:                 128



 =====================
 S C F   U P D A T E S
 =====================
  
 Max. nr. of cycles:                               300
 Convergence criterion:                              0.0000010000
   secondary criterion:                              0.0010000000

 Mix parameter (when DIIS does not apply):           0.2000000000
 Mixed ADIIS+SDIIS will be used                  
    Max number of expansion vectors:                10
    Pure ADIIS when Max([F,P]) is above              0.1000000000
    Pure SDIIS when Max([F,P]) is below              0.0010000000
 Automatic ElectronSmearing (in case of problematic SCF convergence) disabled



 =================
 P R E C I S I O N  ***  (General: NumInt, NeglectFunctionTails, ...)  ***
 =================
  

 NumInt:           Target precision:                 4.0000000000
 -------           Initial precision:                4.0000000000
                   Min. precision (optimization):    4.0000000000

 Neglect Functions:          Basis functions:        0.1000000000E-13
 ------------------          Fit functions:          0.1000000000E-13



 ===========================
 L I N E A R   S C A L I N G
 ===========================
  

 Cut-off radii density fit:                        0.1000000000E-07
 Overlap cut-off criterion AO matrix elements:     0.1000000000E-05
 Cut-offs for Coulomb potential and fitted density:0.1000000000E-07
 Cut-off criterion for Coulomb multipole terms:    0.1000000000E-07
 Progressive Convergence parameter:                 0.000000000    
1
 ***************************************************************************************************



                                            ***************************
                                            *  C O M P U T A T I O N  *
                                            ***************************
  



 ==============================
 Double group spinor symmetries  ***  (Spin-Orbit)  ***
 ==============================
  

 The double group Lowdins are spinors adapted to the irreducible representations
 of the double group. These double group Lowdins are linear combinations of
 products of the single group Lowdins and the spinfunctions. The single group
 Lowdins are  orthonormalized symmetrized fragment orbitals (SFOs).
 The complex coefficients that are used in the linear combinations are also
 known as Clebsch-Gordan coefficients.
 The spin functions (alpha,beta) span irrep e1/2


          A * e 1/2 :      A1/2

  A1/2:1 = A.alpha
  A1/2:1 = A.beta

 The table summarizes which one-electron orbital irreps (single group) couple
 with spin to which spinor irreps (double group).
 The Clebsch-Gordan series for each direct product: orbital irrep times e1/2.
                  A
            -------
  A1/2           X


 dimension (equal to the max. nr. of electrons per spinor) of the double group irreps
 ------------------------------------------------------------------------------------
  A1/2           1

 Number of elements of the density matrix on this node (used, total):     83523   1003236



 ===========================================
 Numerical Integration : Fuzzy Cells (Becke)
 ===========================================
  
 Becke grid quality: NORMAL         
  
 Lebedev angular grid order:             min:  11 max:  23
 Nr. of radial points:                   min:  46 max:  55

 Total nr. of points:     397126
 Nr. of blocks:             3103
 Block length:               128
 Nr. of dummy points:         58


 Test of Precision of the Numerical Integration Grid
 ===================================================

 Integral of the Total Core Density:                   0.00000000000000


 -------------------------------------------
  COSMO surface
  Area             =         1597.970
  Volume           =         3694.624
  Number of Points =         3823
 -------------------------------------------



 ========================
 Density Fitting (zlmFit)
 ========================
  
 ZlmFit Fit Quality: NORMAL         
  
 Max L-expansion:                        min:   6 max:   7
 Nr. of radial interpolation points:     min:  39 max:  54



 =====
 S C F  ***  ScaSCF  ***
 =====
  
 Initial density matrix is calculated as sum of fragments

 CYCLE    1
 SCF Error: norm([F,P])=     15.298353831981, max([F,P])=      1.504189964657
 orbitals (Q,E):
 ---------------
 A :126...145        ( 2.00    -0.4215)  ( 2.00    -0.4179)  ( 2.00    -0.4164)  ( 2.00    -0.4159)
                     ( 2.00    -0.4129)  ( 2.00    -0.4104)  ( 2.00    -0.4027)  ( 2.00    -0.3965)
                     ( 2.00    -0.3756)  ( 2.00    -0.3310)  ( 0.00    -0.2936)  ( 0.00    -0.2382)
                     ( 0.00    -0.2237)  ( 0.00    -0.2220)  ( 0.00    -0.2165)  ( 0.00    -0.1953)
                     ( 0.00    -0.1894)  ( 0.00    -0.1639)  ( 0.00    -0.1449)  ( 0.00    -0.1193)

 CYCLE    2
   MIX coefficients:  0.8000  0.2000
 SCF Error: norm([F,P])=      2.190132106010, max([F,P])=      0.202152473558
 orbitals (Q,E):
 ---------------
 A :126...136        ( 2.00    -0.3612)  ( 2.00    -0.3604)  ( 2.00    -0.3576)  ( 2.00    -0.3568)
                     ( 2.00    -0.3553)  ( 2.00    -0.3508)  ( 2.00    -0.3487)  ( 2.00    -0.3381)
                     ( 2.00    -0.3249)  ( 2.00    -0.2863)  ( 0.00    -0.2500)

 CYCLE    3
  SDIIS (wt  0.000): -0.9004  1.9004
 A-DIIS (wt  1.000):  0.0000  1.0000
  DIIS coefficients:  0.0000  1.0000
 SCF Error: norm([F,P])=      1.181357639656, max([F,P])=      0.103209112100
 orbitals (Q,E):
 ---------------
 A :126...136        ( 2.00    -0.1981)  ( 2.00    -0.1892)  ( 2.00    -0.1828)  ( 2.00    -0.1821)
                     ( 2.00    -0.1798)  ( 2.00    -0.1785)  ( 2.00    -0.1721)  ( 2.00    -0.1597)
                     ( 2.00    -0.1536)  ( 2.00    -0.1232)  ( 0.00    -0.0963)

 CYCLE    4
  SDIIS (wt  0.000):  0.3441  0.0928  0.5632
 A-DIIS (wt  1.000):  0.0000  0.6012  0.3988
  DIIS coefficients:  0.0000  0.6012  0.3988
 SCF Error: norm([F,P])=      1.533902268701, max([F,P])=      0.162345266731
 orbitals (Q,E):
 ---------------
 A :126...136        ( 2.00    -0.2543)  ( 2.00    -0.2519)  ( 2.00    -0.2497)  ( 2.00    -0.2471)
                     ( 2.00    -0.2434)  ( 2.00    -0.2367)  ( 2.00    -0.2304)  ( 2.00    -0.2166)
                     ( 2.00    -0.2093)  ( 2.00    -0.1717)  ( 0.00    -0.1395)

 CYCLE    5
  SDIIS (wt  0.446): -0.1564  0.4545  0.1231  0.5788
 A-DIIS (wt  0.554):  0.0000  0.0000  0.0000  1.0000
  DIIS coefficients: -0.0697  0.2025  0.0549  0.8123
 SCF Error: norm([F,P])=      0.296282752160, max([F,P])=      0.055883813970
 orbitals (Q,E):
 ---------------
 A :126...136        ( 2.00    -0.2707)  ( 2.00    -0.2621)  ( 2.00    -0.2574)  ( 2.00    -0.2572)
                     ( 2.00    -0.2553)  ( 2.00    -0.2463)  ( 2.00    -0.2419)  ( 2.00    -0.2311)
                     ( 2.00    -0.2284)  ( 2.00    -0.1986)  ( 0.00    -0.1649)

 CYCLE    6
  SDIIS (wt  0.000):  0.0074  0.1157  0.0807  0.5360  0.2602
 A-DIIS (wt  1.000):  0.0000  0.0000  0.0000  0.6700  0.3300
  DIIS coefficients:  0.0000  0.0000  0.0000  0.6700  0.3300
 SCF Error: norm([F,P])=      0.487253556319, max([F,P])=      0.106010352789
 orbitals (Q,E):
 ---------------
 A :126...136        ( 2.00    -0.2672)  ( 2.00    -0.2632)  ( 2.00    -0.2589)  ( 2.00    -0.2565)
                     ( 2.00    -0.2550)  ( 2.00    -0.2529)  ( 2.00    -0.2479)  ( 2.00    -0.2343)
                     ( 2.00    -0.2264)  ( 2.00    -0.1920)  ( 0.00    -0.1608)

 CYCLE    7
  SDIIS (wt  0.770):  0.0181  0.0448  0.0467  0.4322  0.2209  0.2373
 A-DIIS (wt  0.230):  0.0000  0.0000  0.0000  0.1626  0.0076  0.8298
  DIIS coefficients:  0.0139  0.0345  0.0360  0.3703  0.1719  0.3734
 SCF Error: norm([F,P])=      0.141603870596, max([F,P])=      0.023737103516
 orbitals (Q,E):
 ---------------
 A :126...136        ( 2.00    -0.2631)  ( 2.00    -0.2584)  ( 2.00    -0.2545)  ( 2.00    -0.2538)
                     ( 2.00    -0.2521)  ( 2.00    -0.2486)  ( 2.00    -0.2415)  ( 2.00    -0.2259)
                     ( 2.00    -0.2212)  ( 2.00    -0.1866)  ( 0.00    -0.1525)

 CYCLE    8
  SDIIS (wt  0.770): -0.0077  0.0383  0.0125  0.2876  0.1179  0.3448  0.2066
 A-DIIS (wt  0.230):  0.0000  0.0000  0.0000  0.0000  0.0000  0.5546  0.4454
  DIIS coefficients: -0.0059  0.0295  0.0096  0.2216  0.0908  0.3930  0.2614
 SCF Error: norm([F,P])=      0.157320249079, max([F,P])=      0.029112019006
 orbitals (Q,E):
 ---------------
 A :126...136        ( 2.00    -0.2620)  ( 2.00    -0.2589)  ( 2.00    -0.2549)  ( 2.00    -0.2532)
                     ( 2.00    -0.2518)  ( 2.00    -0.2481)  ( 2.00    -0.2396)  ( 2.00    -0.2273)
                     ( 2.00    -0.2212)  ( 2.00    -0.1855)  ( 0.00    -0.1530)

 CYCLE    9
  SDIIS (wt  0.971): -0.0027  0.0122  0.0041  0.1262  0.0520  0.2484  0.1937  0.3660
 A-DIIS (wt  0.029):  0.0000  0.0000  0.0000  0.0000  0.0000  0.0000  0.0351  0.9649
  DIIS coefficients: -0.0026  0.0119  0.0040  0.1225  0.0505  0.2411  0.1891  0.3836
 SCF Error: norm([F,P])=      0.030195211129, max([F,P])=      0.003909982489
 orbitals (Q,E):
 ---------------
 A :126...136        ( 2.00    -0.2630)  ( 2.00    -0.2592)  ( 2.00    -0.2552)  ( 2.00    -0.2537)
                     ( 2.00    -0.2524)  ( 2.00    -0.2488)  ( 2.00    -0.2409)  ( 2.00    -0.2288)
                     ( 2.00    -0.2219)  ( 2.00    -0.1866)  ( 0.00    -0.1543)

 CYCLE   10
  SDIIS (wt  0.999): -0.0007  0.0033  0.0013  0.0462  0.0191  0.1194  0.0965  0.2686  0.4463
 A-DIIS (wt  0.001):  0.0000  0.0000  0.0000  0.0000  0.0000  0.0000  0.0000  0.0420  0.9580
  DIIS coefficients: -0.0007  0.0033  0.0013  0.0462  0.0190  0.1192  0.0964  0.2683  0.4471
 SCF Error: norm([F,P])=      0.007150487217, max([F,P])=      0.001142892339
 orbitals (Q,E):
 ---------------
 A :126...136        ( 2.00    -0.2629)  ( 2.00    -0.2593)  ( 2.00    -0.2553)  ( 2.00    -0.2537)
                     ( 2.00    -0.2524)  ( 2.00    -0.2488)  ( 2.00    -0.2409)  ( 2.00    -0.2288)
                     ( 2.00    -0.2219)  ( 2.00    -0.1866)  ( 0.00    -0.1543)

 CYCLE   11
  SDIIS (wt  1.000): -0.0007  0.0011 -0.0001  0.0089  0.0032  0.0337  0.0284  0.1091  0.3137  0.5027
  DIIS coefficients: -0.0007  0.0011 -0.0001  0.0089  0.0032  0.0337  0.0284  0.1091  0.3137  0.5027
 SCF Error: norm([F,P])=      0.002549976465, max([F,P])=      0.000385208709
 orbitals (Q,E):
 ---------------
 A :126...136        ( 2.00    -0.2629)  ( 2.00    -0.2593)  ( 2.00    -0.2553)  ( 2.00    -0.2538)
                     ( 2.00    -0.2524)  ( 2.00    -0.2488)  ( 2.00    -0.2409)  ( 2.00    -0.2288)
                     ( 2.00    -0.2220)  ( 2.00    -0.1866)  ( 0.00    -0.1543)

 CYCLE   12
  SDIIS (wt  1.000): -0.0001 -0.0000  0.0004 -0.0000  0.0078  0.0069  0.0394  0.1603  0.3559  0.4294
  DIIS coefficients: -0.0001 -0.0000  0.0004 -0.0000  0.0078  0.0069  0.0394  0.1603  0.3559  0.4294
 SCF Error: norm([F,P])=      0.001127866684, max([F,P])=      0.000184880961
 orbitals (Q,E):
 ---------------
 A :126...136        ( 2.00    -0.2629)  ( 2.00    -0.2593)  ( 2.00    -0.2553)  ( 2.00    -0.2537)
                     ( 2.00    -0.2524)  ( 2.00    -0.2488)  ( 2.00    -0.2409)  ( 2.00    -0.2288)
                     ( 2.00    -0.2219)  ( 2.00    -0.1866)  ( 0.00    -0.1543)

 CYCLE   13
  SDIIS (wt  1.000):  0.0000 -0.0000 -0.0002  0.0023  0.0021  0.0144  0.0710  0.1715  0.2576  0.4813
  DIIS coefficients:  0.0000 -0.0000 -0.0002  0.0023  0.0021  0.0144  0.0710  0.1715  0.2576  0.4813
 SCF Error: norm([F,P])=      0.000261298590, max([F,P])=      0.000038403435
 orbitals (Q,E):
 ---------------
 A :126...136        ( 2.00    -0.2629)  ( 2.00    -0.2593)  ( 2.00    -0.2553)  ( 2.00    -0.2537)
                     ( 2.00    -0.2524)  ( 2.00    -0.2488)  ( 2.00    -0.2409)  ( 2.00    -0.2288)
                     ( 2.00    -0.2219)  ( 2.00    -0.1866)  ( 0.00    -0.1543)

 CYCLE   14
  SDIIS (wt  1.000): -0.0001 -0.0001  0.0005  0.0005  0.0044  0.0266  0.0666  0.1137  0.3061  0.4818
  DIIS coefficients: -0.0001 -0.0001  0.0005  0.0005  0.0044  0.0266  0.0666  0.1137  0.3061  0.4818
 SCF Error: norm([F,P])=      0.000092801989, max([F,P])=      0.000010695214
 orbitals (Q,E):
 ---------------
 A :126...136        ( 2.00    -0.2629)  ( 2.00    -0.2593)  ( 2.00    -0.2553)  ( 2.00    -0.2537)
                     ( 2.00    -0.2524)  ( 2.00    -0.2488)  ( 2.00    -0.2409)  ( 2.00    -0.2288)
                     ( 2.00    -0.2219)  ( 2.00    -0.1866)  ( 0.00    -0.1543)

 CYCLE   15
  SDIIS (wt  1.000): -0.0000  0.0003  0.0003  0.0021  0.0125  0.0309  0.0549  0.1691  0.3492  0.3806
  DIIS coefficients: -0.0000  0.0003  0.0003  0.0021  0.0125  0.0309  0.0549  0.1691  0.3492  0.3806
 SCF Error: norm([F,P])=      0.000044344158, max([F,P])=      0.000008797576
 orbitals (Q,E):
 ---------------
 A :126...136        ( 2.00    -0.2629)  ( 2.00    -0.2593)  ( 2.00    -0.2553)  ( 2.00    -0.2537)
                     ( 2.00    -0.2524)  ( 2.00    -0.2488)  ( 2.00    -0.2409)  ( 2.00    -0.2288)
                     ( 2.00    -0.2219)  ( 2.00    -0.1866)  ( 0.00    -0.1543)

 CYCLE   16
  SDIIS (wt  1.000): -0.0001 -0.0001 -0.0002 -0.0000  0.0002  0.0026  0.0259  0.1041  0.2413  0.6263
  DIIS coefficients: -0.0001 -0.0001 -0.0002 -0.0000  0.0002  0.0026  0.0259  0.1041  0.2413  0.6263
 SCF Error: norm([F,P])=      0.000013341243, max([F,P])=      0.000002187232
 orbitals (Q,E):
 ---------------
 A :126...136        ( 2.00    -0.2629)  ( 2.00    -0.2593)  ( 2.00    -0.2553)  ( 2.00    -0.2537)
                     ( 2.00    -0.2524)  ( 2.00    -0.2488)  ( 2.00    -0.2409)  ( 2.00    -0.2288)
                     ( 2.00    -0.2219)  ( 2.00    -0.1866)  ( 0.00    -0.1543)

 CYCLE   17
  SDIIS (wt  1.000): -0.0000  0.0001  0.0010  0.0027  0.0056  0.0245  0.0701  0.1420  0.4088  0.3452
  DIIS coefficients: -0.0000  0.0001  0.0010  0.0027  0.0056  0.0245  0.0701  0.1420  0.4088  0.3452
 SCF Error: norm([F,P])=      0.000011271168, max([F,P])=      0.000002398678
 orbitals (Q,E):
 ---------------
 A :126...136        ( 2.00    -0.2629)  ( 2.00    -0.2593)  ( 2.00    -0.2553)  ( 2.00    -0.2537)
                     ( 2.00    -0.2524)  ( 2.00    -0.2488)  ( 2.00    -0.2409)  ( 2.00    -0.2288)
                     ( 2.00    -0.2219)  ( 2.00    -0.1866)  ( 0.00    -0.1543)

 CYCLE   18
  SDIIS (wt  1.000):  0.0001  0.0005  0.0013  0.0027  0.0125  0.0345  0.0696  0.2014  0.1902  0.4873
  DIIS coefficients:  0.0001  0.0005  0.0013  0.0027  0.0125  0.0345  0.0696  0.2014  0.1902  0.4873
 SCF Error: norm([F,P])=      0.000001640898, max([F,P])=      0.000000195708
 orbitals (Q,E):
 ---------------
 A :126...136        ( 2.00    -0.2629)  ( 2.00    -0.2593)  ( 2.00    -0.2553)  ( 2.00    -0.2537)
                     ( 2.00    -0.2524)  ( 2.00    -0.2488)  ( 2.00    -0.2409)  ( 2.00    -0.2288)
                     ( 2.00    -0.2219)  ( 2.00    -0.1866)  ( 0.00    -0.1543)

 SCF CONVERGED
 cosmo_calcen: 0.5 (esolb+esolc) (Hartrees) =   -0.024663

 Solvation energy (screening term,uncorrected) =    -15.476075 kcal/mol

 Solvation energy (dispersion and cavitation terms) =      2.880473 kcal/mol
 Solvation Energy Contributions (Hartrees)
          esola   esolb+esolc
     0.02466269   -0.04932538
 esol last cycle   -0.02466269

 CYCLE   19
1
 ***************************************************************************************************



                                                *******************
                                                *  R E S U L T S  *
                                                *******************
  
 *** Using FIT density in Focky
  SDIIS (wt  1.000):  0.0000  0.0002  0.0006  0.0042  0.0135  0.0319  0.1063  0.1022  0.4540  0.2871
  DIIS coefficients:  0.0000  0.0002  0.0006  0.0042  0.0135  0.0319  0.1063  0.1022  0.4540  0.2871
 SCF Error: norm([F,P])=      0.000002399652, max([F,P])=      0.000000387956

 Scaled ZORA Orbital Energies, per Irrep and Spin:
 =================================================
                        Occup              E (au)              E (eV)       Diff (eV) with prev. cycle
                        -----      --------------------        ------       --------------------------
 A
             126        2.000     -0.26289793426642E+00        -7.154               3.47E-07
             127        2.000     -0.25926034389931E+00        -7.055               6.64E-07
             128        2.000     -0.25528797452298E+00        -6.947               7.33E-07
             129        2.000     -0.25373962679496E+00        -6.905               3.41E-07
             130        2.000     -0.25236900325774E+00        -6.867               2.78E-07
             131        2.000     -0.24884162301970E+00        -6.771               4.15E-07
             132        2.000     -0.24089757405524E+00        -6.555               1.57E-06
             133        2.000     -0.22877620971153E+00        -6.225               1.37E-06
             134        2.000     -0.22193929708739E+00        -6.039               5.38E-07
             135        2.000     -0.18660762433522E+00        -5.078               5.95E-07
             136        0.000     -0.15430103212023E+00        -4.199
             137        0.000     -0.86660876554959E-01        -2.358
             138        0.000     -0.75097176208271E-01        -2.043
             139        0.000     -0.65323512401175E-01        -1.778
             140        0.000     -0.59966014349264E-01        -1.632
             141        0.000     -0.51241321054019E-01        -1.394
             142        0.000     -0.41093341818497E-01        -1.118
             143        0.000     -0.34749172749605E-01        -0.946
             144        0.000     -0.53965231580181E-02        -0.147
             145        0.000     -0.98486451008758E-03        -0.027
  
 HOMO :      135 A                -0.18660762433522E+00
 LUMO :      136 A                -0.15430103212023E+00
  
 cosmo_calcen: 0.5 (esolb+esolc) (Hartrees) =   -0.024663

 Solvation energy (screening term,uncorrected) =    -15.476069 kcal/mol

 Solvation energy (dispersion and cavitation terms) =      2.880473 kcal/mol
 Solvation Energy Contributions (Hartrees)
          esola   esolb+esolc
     0.02466268   -0.04932537
 esol last cycle   -0.02466268


 All Electron Calculation, thus no Orbital Energies of the Core Orbitals are calculated


 Fit test: (difference of exact and fit density, squared integrated, result summed over spins)
         Sum-of-Fragments:                             0.00000000542418
         Orthogonalized Fragments:                     0.00042697740849
         SCF:                                          0.00110931482884



 ==========================
 Electron Density at Nuclei
 ==========================
  
 The electron density is calculated at points on a small sphere around the center of a nucleus.
 The printed electron density is the average electron density on these points.
 The radius of the sphere is the printed approximate finite nuclear radius.
 Note: ZORA-4 density is used, which includes small component density

         Atom        Nuclear Radius (Angstrom)             Electron Density (a.u.)
         ----        -------------------------             -----------------------
     1)   C                 0.0000320678                              127.03760
     2)   C                 0.0000320678                              127.04152
     3)   C                 0.0000320678                              127.01567
     4)   C                 0.0000320678                              127.05702
     5)   C                 0.0000320678                              127.02217
     6)   C                 0.0000320678                              127.05137
     7)   C                 0.0000320678                              127.09772
     8)   C                 0.0000320678                              127.00115
     9)   H                 0.0000181514                                0.49509
    10)   H                 0.0000181514                                0.49752
    11)   H                 0.0000181514                                0.49756
    12)   H                 0.0000181514                                0.49518
    13)   C                 0.0000320678                              127.03339
    14)   C                 0.0000320678                              127.11320
    15)   C                 0.0000320678                              127.03478
    16)   C                 0.0000320678                              127.04842
    17)   C                 0.0000320678                              127.05593
    18)   C                 0.0000320678                              127.01221
    19)   C                 0.0000320678                              127.02769
    20)   H                 0.0000181514                                0.49513
    21)   C                 0.0000320678                              127.05802
    22)   H                 0.0000181514                                0.49407
    23)   H                 0.0000181514                                0.49717
    24)   H                 0.0000181514                                0.49752
    25)   O                 0.0000345546                              313.94151
    26)   O                 0.0000345546                              313.99610
    27)   N                 0.0000333706                              205.74492
    28)   N                 0.0000333706                              205.74468
    29)   C                 0.0000320678                              126.93293
    30)   H                 0.0000181514                                0.48483
    31)   H                 0.0000181514                                0.49382
    32)   C                 0.0000320678                              127.10607
    33)   O                 0.0000345546                              314.00178
    34)   O                 0.0000345546                              313.89751
    35)   C                 0.0000320678                              126.96471
    36)   C                 0.0000320678                              126.92533
    37)   C                 0.0000320678                              126.92443
    38)   C                 0.0000320678                              126.93740
    39)   H                 0.0000181514                                0.49589
    40)   H                 0.0000181514                                0.49734
    41)   H                 0.0000181514                                0.49442
    42)   H                 0.0000181514                                0.49588
    43)   H                 0.0000181514                                0.49445
    44)   H                 0.0000181514                                0.49743
    45)   H                 0.0000181514                                0.49552
    46)   H                 0.0000181514                                0.49660
    47)   H                 0.0000181514                                0.49651
    48)   C                 0.0000320678                              127.01375
    49)   C                 0.0000320678                              127.04664
    50)   C                 0.0000320678                              127.04853
    51)   C                 0.0000320678                              127.05439
    52)   C                 0.0000320678                              127.05133
    53)   C                 0.0000320678                              127.02855
    54)   H                 0.0000181514                                0.49052
    55)   H                 0.0000181514                                0.49563
    56)   H                 0.0000181514                                0.49634
    57)   H                 0.0000181514                                0.49591
    58)   C                 0.0000320678                              126.96565
    59)   F                 0.0000361580                              450.99465
    60)   F                 0.0000361580                              450.98558
    61)   F                 0.0000361580                              450.99538



 =======================================
 M U L L I K E N   P O P U L A T I O N S
 =======================================
  
 The survey below gives for each atom:
 a) the total charge (Z minus electrons)
 b) the net spin polarization (nr of electrons spin-A minus spin-B)
 c) for each spin the atomic electron valence density (integrated) per L-value.

 Atom              Charge    Spin density          S         P         D         F
 ----              ------    ------------       ------    ------    ------    ------
 1 C              -0.1085                       3.1214    2.9064    0.0745    0.0063
 2 C               0.1973                       3.0678    2.6287    0.0984    0.0077
 3 C               0.1661                       3.0744    2.6976    0.0571    0.0048
 4 C               0.2024                       3.0884    2.6444    0.0598    0.0048
 5 C               0.1532                       3.0834    2.7007    0.0580    0.0048
 6 C               0.2102                       3.0857    2.6395    0.0598    0.0048
 7 C               0.4487                       2.9981    2.4121    0.1325    0.0087
 8 C               0.0862                       3.1161    2.7000    0.0904    0.0073
 9 H              -0.1515                       1.0629    0.0831    0.0055    0.0000
 10 H             -0.1746                       1.0980    0.0715    0.0051    0.0000
 11 H             -0.1702                       1.0928    0.0723    0.0051    0.0000
 12 H             -0.1796                       1.0997    0.0747    0.0052    0.0000
 13 C              0.1103                       3.1246    2.6648    0.0929    0.0074
 14 C              0.4654                       3.0050    2.3893    0.1316    0.0087
 15 C             -0.1049                       3.1220    2.9028    0.0739    0.0063
 16 C              0.2020                       3.0654    2.6257    0.0992    0.0077
 17 C              0.2188                       3.0873    2.6293    0.0598    0.0048
 18 C              0.1603                       3.0745    2.7035    0.0569    0.0048
 19 C              0.1577                       3.0821    2.6976    0.0577    0.0048
 20 H             -0.1795                       1.0997    0.0746    0.0052    0.0000
 21 C              0.2074                       3.0902    2.6379    0.0598    0.0048
 22 H             -0.1620                       1.0772    0.0793    0.0054    0.0000
 23 H             -0.1681                       1.0909    0.0721    0.0051    0.0000
 24 H             -0.1694                       1.0931    0.0713    0.0051    0.0000
 25 O             -0.6266                       3.8247    4.7442    0.0521    0.0056
 26 O             -0.5823                       3.8284    4.6953    0.0527    0.0058
 27 N             -0.2946                       3.4255    3.7697    0.0924    0.0069
 28 N             -0.3123                       3.4234    3.7914    0.0907    0.0069
 29 C              0.3716                       2.9751    2.5810    0.0680    0.0042
 30 H             -0.0546                       0.9490    0.0994    0.0062    0.0000
 31 H             -0.1279                       1.0413    0.0807    0.0059    0.0000
 32 C              0.7747                       2.9042    2.1379    0.1720    0.0112
 33 O             -0.6044                       3.8205    4.7206    0.0569    0.0063
 34 O             -0.5309                       3.7868    4.6609    0.0757    0.0075
 35 C              0.2168                       3.1508    2.5058    0.1193    0.0073
 36 C              0.6112                       2.8621    2.4862    0.0385    0.0021
 37 C              0.6117                       2.8625    2.4853    0.0385    0.0021
 38 C              0.6224                       2.8607    2.4759    0.0389    0.0021
 39 H             -0.1916                       1.1036    0.0821    0.0059    0.0000
 40 H             -0.1746                       1.0805    0.0880    0.0061    0.0000
 41 H             -0.1879                       1.0976    0.0844    0.0059    0.0000
 42 H             -0.1920                       1.1039    0.0822    0.0059    0.0000
 43 H             -0.1887                       1.0981    0.0846    0.0059    0.0000
 44 H             -0.1735                       1.0796    0.0878    0.0061    0.0000
 45 H             -0.1819                       1.0930    0.0830    0.0059    0.0000
 46 H             -0.1923                       1.1039    0.0826    0.0059    0.0000
 47 H             -0.1926                       1.1043    0.0824    0.0058    0.0000
 48 C              0.1332                       3.1013    2.6605    0.0976    0.0074
 49 C              0.1704                       3.0873    2.6804    0.0570    0.0049
 50 C              0.1889                       3.0862    2.6627    0.0573    0.0049
 51 C              0.2313                       3.0820    2.6224    0.0593    0.0049
 52 C              0.2366                       3.0796    2.6198    0.0591    0.0049
 53 C             -0.1505                       3.1298    2.9406    0.0742    0.0060
 54 H             -0.0705                       0.9725    0.0924    0.0056    0.0000
 55 H             -0.1565                       1.0724    0.0786    0.0056    0.0000
 56 H             -0.1889                       1.1055    0.0780    0.0055    0.0000
 57 H             -0.1743                       1.0922    0.0767    0.0054    0.0000
 58 C              1.1974                       2.7605    1.8181    0.2076    0.0164
 59 F             -0.4129                       3.9555    5.4161    0.0365    0.0048
 60 F             -0.4131                       3.9569    5.4147    0.0368    0.0048
 61 F             -0.4085                       3.9506    5.4166    0.0365    0.0047

 Populations of individual BAS functions
 ----------------------------------------
 1 C            0.4978  1.4980  0.3264  0.8418 -0.0426 -0.0250 -0.0637  0.1943  0.7719  0.7781
                0.7119  0.1838  0.1980  0.1571  0.0127  0.0231  0.0092  0.0306  0.0143 -0.0154
                0.0012  0.0000  0.0026  0.0046  0.0006 -0.0037  0.0073  0.0062 -0.0054 -0.0071
 2 C            0.4975  1.4992  0.2583  0.8575 -0.0446 -0.0764 -0.1607  0.0653  0.8135  0.7231
                0.7387  0.1977  0.1708  0.1566  0.0225  0.0244  0.0125  0.0297  0.0213 -0.0119
                0.0034  0.0007  0.0039  0.0030  0.0006 -0.0036  0.0060  0.0044 -0.0046 -0.0061
 3 C            0.4977  1.4982  0.2677  0.8541 -0.0432 -0.1208 -0.1279  0.0822  0.8056  0.7984
                0.7180  0.1902  0.1990  0.1528  0.0097  0.0183  0.0060  0.0231  0.0123 -0.0123
                0.0005 -0.0001  0.0020  0.0037  0.0005 -0.0027  0.0056  0.0047 -0.0040 -0.0053
 4 C            0.4974  1.4985  0.2756  0.8605 -0.0437 -0.1018 -0.1698  0.0881  0.7891  0.8173
                0.6861  0.1909  0.2000  0.1445  0.0136  0.0193  0.0078  0.0198  0.0114 -0.0121
                0.0022  0.0006  0.0028  0.0023  0.0005 -0.0028  0.0045  0.0037 -0.0038 -0.0051
 5 C            0.4970  1.4991  0.2787  0.8518 -0.0432 -0.0727 -0.1803  0.1223  0.7674  0.8290
                0.6936  0.1920  0.1990  0.1504  0.0200  0.0157  0.0101  0.0159  0.0067 -0.0105
                0.0038  0.0025  0.0038  0.0010  0.0006 -0.0030  0.0019  0.0019 -0.0031 -0.0047
 6 C            0.4975  1.4986  0.2707  0.8632 -0.0442 -0.1487 -0.1177  0.0549  0.8151  0.8055
                0.6939  0.1926  0.2008  0.1430  0.0121  0.0161  0.0060  0.0250  0.0132 -0.0127
                0.0008  0.0000  0.0020  0.0036  0.0005 -0.0029  0.0054  0.0046 -0.0040 -0.0051
 7 C            0.4974  1.4993  0.1877  0.8599 -0.0462 -0.0185 -0.2052 -0.0123  0.6292  0.8317
                0.6621  0.1980  0.1856  0.1416  0.0329  0.0539  0.0226  0.0128  0.0178 -0.0076
                0.0067  0.0042  0.0061 -0.0002  0.0011 -0.0036  0.0012  0.0015 -0.0029 -0.0054
 8 C            0.4979  1.4982  0.3217  0.8398 -0.0414 -0.1001 -0.1168  0.1219  0.7341  0.8072
                0.7335  0.1683  0.1927  0.1591  0.0159  0.0240  0.0150  0.0317  0.0149 -0.0111
                0.0017  0.0002  0.0025  0.0040  0.0009 -0.0034  0.0066  0.0061 -0.0048 -0.0066
 13 C           0.4980  1.4980  0.3271  0.8429 -0.0415 -0.1071 -0.1091  0.0956  0.7475  0.7991
                0.7203  0.1739  0.1909  0.1536  0.0173  0.0274  0.0152  0.0279  0.0176 -0.0125
                0.0021  0.0014  0.0026  0.0039  0.0011 -0.0036  0.0049  0.0053 -0.0041 -0.0061
 14 C           0.4976  1.4991  0.1926  0.8622 -0.0465 -0.0370 -0.1806 -0.0272  0.6322  0.8035
                0.6740  0.1972  0.1834  0.1438  0.0332  0.0473  0.0267  0.0177  0.0144 -0.0077
                0.0066  0.0044  0.0059  0.0005  0.0011 -0.0038  0.0006  0.0017 -0.0028 -0.0055
 15 C           0.4979  1.4978  0.3278  0.8407 -0.0423 -0.0319 -0.0417  0.1693  0.7759  0.7725
                0.7202  0.1869  0.1927  0.1590  0.0155  0.0201  0.0111  0.0282  0.0116 -0.0126
                0.0020  0.0005  0.0029  0.0033  0.0007 -0.0036  0.0063  0.0051 -0.0045 -0.0064
 16 C           0.4981  1.4982  0.2551  0.8582 -0.0443 -0.1087 -0.1586  0.0867  0.8219  0.7388
                0.7199  0.1995  0.1751  0.1512  0.0238  0.0249  0.0132  0.0297  0.0211 -0.0135
                0.0038  0.0013  0.0041  0.0027  0.0009 -0.0043  0.0059  0.0049 -0.0045 -0.0070
 17 C           0.4977  1.4982  0.2710  0.8645 -0.0441 -0.1707 -0.1006  0.0482  0.8282  0.7961
                0.6926  0.1959  0.1978  0.1416  0.0135  0.0152  0.0064  0.0240  0.0130 -0.0123
                0.0010  0.0005  0.0018  0.0033  0.0007 -0.0031  0.0048  0.0043 -0.0035 -0.0050
 18 C           0.4978  1.4980  0.2674  0.8546 -0.0433 -0.1435 -0.1126  0.0925  0.8139  0.7937
                0.7178  0.1942  0.1953  0.1521  0.0125  0.0168  0.0066  0.0230  0.0108 -0.0130
                0.0012  0.0005  0.0020  0.0034  0.0007 -0.0033  0.0050  0.0047 -0.0038 -0.0055
 19 C           0.4975  1.4982  0.2762  0.8532 -0.0430 -0.0928 -0.1559  0.1133  0.7758  0.8162
                0.7001  0.1954  0.1959  0.1496  0.0215  0.0172  0.0099  0.0146  0.0074 -0.0129
                0.0045  0.0028  0.0042  0.0006  0.0007 -0.0035  0.0021  0.0023 -0.0034 -0.0054
 21 C           0.4974  1.4987  0.2764  0.8616 -0.0438 -0.1141 -0.1672  0.0925  0.7948  0.8183
                0.6787  0.1961  0.1957  0.1431  0.0173  0.0193  0.0094  0.0153  0.0084 -0.0100
                0.0035  0.0018  0.0032  0.0011  0.0005 -0.0030  0.0028  0.0026 -0.0029 -0.0046
 29 C           0.4989  1.4981  0.1454  0.8805 -0.0478 -0.1637 -0.0377 -0.1047  0.7551  0.8251
                0.7633  0.1693  0.2028  0.1715  0.0107  0.0110  0.0157  0.0044  0.0079  0.0184
                0.0009  0.0010 -0.0002 -0.0010  0.0005  0.0016 -0.0012 -0.0019  0.0012  0.0034
 32 C           0.4968  1.5001  0.0980  0.8568 -0.0474 -0.0701 -0.0720 -0.2348  0.5631  0.6350
                0.7863  0.1998  0.1389  0.1918  0.0460  0.0349  0.0446 -0.0073  0.0176  0.0362
                0.0062  0.0056  0.0042 -0.0041  0.0015  0.0027 -0.0053 -0.0032  0.0021  0.0016
 35 C           0.4971  1.5017  0.3384  0.8607 -0.0470 -0.0632 -0.1057 -0.0387  0.8173  0.8357
                0.5724  0.1809  0.1812  0.1260  0.0191  0.0212  0.0203  0.0193  0.0239  0.0154
                0.0018  0.0007 -0.0003  0.0010  0.0005 -0.0004  0.0017 -0.0000  0.0000  0.0023
 36 C           0.4985  1.4987  0.0158  0.9003 -0.0511 -0.1691 -0.1417 -0.1593  0.8223  0.7626
                0.8112  0.1941  0.1769  0.1891  0.0036  0.0095  0.0037  0.0103  0.0066  0.0048
               -0.0003 -0.0013 -0.0008  0.0014  0.0002 -0.0005  0.0030  0.0014 -0.0010  0.0000
 37 C           0.4984  1.4987  0.0166  0.8998 -0.0511 -0.1601 -0.1578 -0.1538  0.8006  0.7899
                0.8065  0.1882  0.1842  0.1877  0.0081  0.0072  0.0046  0.0071  0.0060  0.0055
                0.0009  0.0006 -0.0003  0.0004  0.0003 -0.0006  0.0003  0.0006 -0.0004  0.0003
 38 C           0.4986  1.4986  0.0107  0.9044 -0.0516 -0.1392 -0.1655 -0.1738  0.7632  0.8141
[...]
  31    0.0986    2.6832    0.1937E-06    0.1105E-02     0.00000
  32    0.0986    2.6832    0.3470E-04    0.1105E-02     0.00000
  33    0.0996    2.7095    0.4176E-01    0.1104E-02     0.00000
  34    0.1029    2.8011    0.4320E-04    0.1058E-02     0.00000
  35    0.1029    2.8011    0.1207E-04    0.1058E-02     0.00000
  36    0.1029    2.8011    0.2094E-06    0.1058E-02     0.00000
  37    0.1033    2.8102    0.1699        0.1049E-02     0.00000
  38    0.1041    2.8330    0.3004E-01    0.1046E-02     0.00000
  39    0.1068    2.9056    0.2889E-01    0.8244E-03     0.00000
  40    0.1119    3.0436    0.9854E-01    0.1009E-02     0.00000
                                                                          
 Major single group excitation contributions for the above excitations    
                                                                          
    Excitation   Single group       Excitation       weight       Contribution
     Nr.         excited states     energy /eV       (sum=1)          to f  
 
       1:       Triplet    1A         0.6979         0.4209
       1:       Triplet    1A         0.6979         0.4209
       1:       Triplet    1A         0.6979         0.1582
 
       2:       Triplet    1A         0.6979         0.8417
       2:       Triplet    1A         0.6979         0.0791
       2:       Triplet    1A         0.6979         0.0791
 
       3:       Triplet    1A         0.6979         0.5000
       3:       Triplet    1A         0.6979         0.5000
 
       4:       Singlet    1A         1.3230         1.0000       0.2313E+00
 
       5:       Triplet    2A         1.7643         0.3428
       5:       Triplet    2A         1.7643         0.3428
       5:       Triplet    2A         1.7643         0.3144
 
       6:       Triplet    2A         1.7643         0.6732
       6:       Triplet    2A         1.7643         0.1634
       6:       Triplet    2A         1.7643         0.1634
 
       7:       Triplet    2A         1.7643         0.4938
       7:       Triplet    2A         1.7643         0.4938
       7:       Triplet    2A         1.7643         0.0124
 
       8:       Triplet    3A         1.9238         0.4700
       8:       Triplet    3A         1.9238         0.4700
       8:       Triplet    3A         1.9238         0.0597
 
       9:       Triplet    3A         1.9238         0.4297
       9:       Triplet    3A         1.9238         0.4297
       9:       Triplet    3A         1.9238         0.1405
 
      10:       Triplet    3A         1.9238         0.7997
      10:       Triplet    3A         1.9238         0.1001
      10:       Triplet    3A         1.9238         0.1001
 
      11:       Singlet    2A         1.9622         0.9997       0.2433E-01
 
      12:       Singlet    3A         2.1420         1.0000       0.1685E-01
 
      13:       Triplet    4A         2.2490         0.4368
      13:       Triplet    4A         2.2490         0.4368
      13:       Triplet    4A         2.2490         0.1263
 
      14:       Triplet    4A         2.2490         0.8736
      14:       Triplet    4A         2.2490         0.0632
      14:       Triplet    4A         2.2490         0.0632
 
      15:       Triplet    4A         2.2490         0.5000
      15:       Triplet    4A         2.2490         0.5000
 
      16:       Singlet    4A         2.4739         0.9851       0.7171E-02
      16:       Triplet    5A         2.4786         0.0073
      16:       Triplet    5A         2.4786         0.0073
 
      17:       Triplet    5A         2.4786         0.7835
      17:       Triplet    5A         2.4786         0.1082
      17:       Triplet    5A         2.4786         0.1082
 
      18:       Triplet    5A         2.4786         0.3964
      18:       Triplet    5A         2.4786         0.3964
      18:       Triplet    5A         2.4786         0.2071
 
      19:       Triplet    5A         2.4786         0.4880
      19:       Triplet    5A         2.4786         0.4880
      19:       Singlet    4A         2.4739         0.0147       0.1068E-03
      19:       Triplet    5A         2.4786         0.0092
 
      20:       Triplet    6A         2.6081         0.3483
      20:       Triplet    6A         2.6081         0.3483
      20:       Triplet    6A         2.6081         0.3033
 
      21:       Triplet    6A         2.6081         0.4865
      21:       Triplet    6A         2.6081         0.4865
      21:       Triplet    6A         2.6081         0.0270
 
      22:       Triplet    6A         2.6081         0.6696
      22:       Triplet    6A         2.6081         0.1651
      22:       Triplet    6A         2.6081         0.1651
 
      23:       Triplet    7A         2.6269         0.4232
      23:       Triplet    7A         2.6269         0.4232
      23:       Triplet    7A         2.6269         0.1537
 
      24:       Triplet    7A         2.6269         0.4922
      24:       Triplet    7A         2.6269         0.4922
      24:       Triplet    7A         2.6269         0.0156
 
      25:       Triplet    7A         2.6269         0.8307
      25:       Triplet    7A         2.6269         0.0846
      25:       Triplet    7A         2.6269         0.0846
 
      26:       Triplet    8A         2.6697         0.5572
      26:       Triplet    8A         2.6697         0.2212
      26:       Triplet    8A         2.6697         0.2212
 
      27:       Triplet    8A         2.6697         0.4361
      27:       Triplet    8A         2.6697         0.2819
      27:       Triplet    8A         2.6697         0.2819
 
      28:       Triplet    8A         2.6697         0.4966
      28:       Triplet    8A         2.6697         0.4966
      28:       Triplet    8A         2.6697         0.0065
 
      29:       Singlet    5A         2.6791         0.9985       0.2782E-01
 
      30:       Triplet    9A         2.6832         0.5652
      30:       Triplet    9A         2.6832         0.2172
      30:       Triplet    9A         2.6832         0.2172
 
      31:       Triplet    9A         2.6832         0.4879
      31:       Triplet    9A         2.6832         0.4879
      31:       Triplet    9A         2.6832         0.0240
 
      32:       Triplet    9A         2.6832         0.4105
      32:       Triplet    9A         2.6832         0.2940
      32:       Triplet    9A         2.6832         0.2940
 
      33:       Singlet    6A         2.7095         0.9998       0.4176E-01
 
      34:       Triplet   10A         2.8011         0.4978
      34:       Triplet   10A         2.8011         0.4978
      34:       Triplet   10A         2.8011         0.0040
 
      35:       Triplet   10A         2.8011         0.5615
      35:       Triplet   10A         2.8011         0.2192
      35:       Triplet   10A         2.8011         0.2192
 
      36:       Triplet   10A         2.8011         0.4345
      36:       Triplet   10A         2.8011         0.2827
      36:       Triplet   10A         2.8011         0.2827
 
      37:       Singlet    7A         2.8102         0.9997       0.1699E+00
 
      38:       Singlet    8A         2.8330         0.9998       0.3004E-01
 
      39:       Singlet    9A         2.9056         1.0000       0.2889E-01
 
      40:       Singlet   10A         3.0436         1.0000       0.9854E-01
  

 Spin-orbit Matrix on basis of single group excited states
                 Single group      Excitation
     Nr.         excited state      energy/au     energy/eV     energy/cm-1
 NPRINT          10          10
 ---------------------------------------------------------------------------
      S1:      Singlet    1A         0.048618        1.3230        10670.37
      S2:      Singlet    2A         0.072108        1.9622        15825.95
      S3:      Singlet    3A         0.078718        2.1420        17276.50
      S4:      Singlet    4A         0.090913        2.4739        19953.20
      S5:      Singlet    5A         0.098455        2.6791        21608.42
      S6:      Singlet    6A         0.099573        2.7095        21853.71
      S7:      Singlet    7A         0.103272        2.8102        22665.69
      S8:      Singlet    8A         0.104112        2.8330        22849.94
      S9:      Singlet    9A         0.106779        2.9056        23435.32
     S10:      Singlet   10A         0.111851        3.0436        24548.56
 ---------------------------------------------------------------------------
      T1:      Triplet    1A         0.025648        0.6979         5629.11
      T2:      Triplet    2A         0.064836        1.7643        14229.91
      T3:      Triplet    3A         0.070697        1.9238        15516.13
      T4:      Triplet    4A         0.082648        2.2490        18139.24
      T5:      Triplet    5A         0.091088        2.4786        19991.61
      T6:      Triplet    6A         0.095847        2.6081        21036.02
      T7:      Triplet    7A         0.096535        2.6269        21187.01
      T8:      Triplet    8A         0.098109        2.6697        21532.44
      T9:      Triplet    9A         0.098604        2.6832        21641.17
     T10:      Triplet   10A         0.102940        2.8011        22592.67

 Spin-orbit couplings calculated as root mean squares: square root
 of (the sum of squares of spin-orbit coupling matrix elements of 
 all sublevels of the uncoupled states) in cm-1
                   T1        T2        T3        T4        T5        T6        T7        T8        T9       T10
                 -------   -------   -------   -------   -------   -------   -------   -------   -------   -------
 <S|Hso|T>
 ---------
      S1:           0.88      4.58      8.53     23.41      1.56      4.26      2.45      4.13      2.14      1.38
      S2:           6.55      0.39      5.18      4.88      0.95      1.95      1.15      5.85      3.37      3.96
      S3:          10.85      5.47      0.30      1.52      3.08     14.55      7.35      8.96      7.61      3.86
      S4:          26.49      3.75      0.78      1.13      4.79      7.98      4.31     17.74      7.48     12.80
      S5:           3.13      1.23      2.40      3.31      1.43      2.52      1.88      0.31      1.23      1.42
      S6:           3.06      2.93      1.97      2.87      2.61      1.85      0.82      1.66      2.32      1.04
      S7:           1.49      2.71      9.21      9.79      1.02      2.07      1.34      1.02      1.24      1.25
      S8:           7.71      1.24      6.01      3.65      2.85      1.23      0.49      4.31      2.05      3.17
      S9:           3.94      0.87      5.64      2.57      0.71      0.80      0.49      3.33      0.34      2.39
     S10:           2.65      2.67     14.91      8.57      1.24      0.58      0.22      2.40      2.57      1.34
 <T|Hso|T>
 ---------
      T1:           0.00      8.43     14.24     39.85      2.44      4.27      3.86      5.33      2.54      2.46
      T2:           8.43      0.00      8.74      5.11      0.65      3.63      2.06      6.73      4.55      4.90
      T3:          14.24      8.74      0.00      1.65      5.12     21.24      8.74     15.53      9.51      7.76
      T4:          39.85      5.11      1.65      0.00      7.57     13.42      6.34     25.12     11.94     18.53
      T5:           2.44      0.65      5.12      7.57      0.00      4.12      2.52      2.48      2.34      1.58
      T6:           4.27      3.63     21.24     13.42      4.12      0.00      0.48      0.98      2.72      2.54
      T7:           3.86      2.06      8.74      6.34      2.52      0.48      0.00      0.98      1.63      0.87
      T8:           5.33      6.73     15.53     25.12      2.48      0.98      0.98      0.00      2.23      3.30
      T9:           2.54      4.55      9.51     11.94      2.34      2.72      1.63      2.23      0.00      1.04
     T10:           2.46      4.90      7.76     18.53      1.58      2.54      0.87      3.30      1.04      0.00


 All Spin-Orbital Coupling Excitation Energies 

 no.     E/a.u.        E/eV      f           tau/s        Symmetry
 ------------------------------------------------------------------
   1:     0.02565      0.69791   0.1171E-08    40.42      A           
   2:     0.02565      0.69791   0.1831E-07    2.584      A           
   3:     0.02565      0.69791   0.5040E-07   0.9388      A           
   4:     0.04862      1.32294   0.2313       0.5693E-07  A           
   5:     0.06484      1.76428   0.1695E-07   0.4367      A           
   6:     0.06484      1.76428   0.6267E-07   0.1181      A           
   7:     0.06484      1.76428   0.3961E-06   0.1869E-01  A           
   8:     0.07070      1.92374   0.7199E-05   0.8651E-03  A           
   9:     0.07070      1.92375   0.8380E-08   0.7431      A           
  10:     0.07070      1.92375   0.8862E-06   0.7027E-02  A           
  11:     0.07211      1.96218   0.2433E-01   0.2461E-06  A           
  12:     0.07872      2.14200   0.1685E-01   0.2980E-06  A           
  13:     0.08265      2.24896   0.8110E-07   0.5618E-01  A           
  14:     0.08265      2.24896   0.3076E-06   0.1481E-01  A           
  15:     0.08265      2.24898   0.3093E-05   0.1473E-02  A           
  16:     0.09091      2.47377   0.7171E-02   0.5252E-06  A           
  17:     0.09109      2.47864   0.2094E-07   0.1791      A           
  18:     0.09109      2.47864   0.7397E-07   0.5071E-01  A           
  19:     0.09109      2.47871   0.1069E-03   0.3509E-04  A           
  20:     0.09585      2.60814   0.5092E-06   0.6654E-02  A           
  21:     0.09585      2.60814   0.6488E-07   0.5221E-01  A           
  22:     0.09585      2.60815   0.1160E-05   0.2922E-02  A           
  23:     0.09654      2.62686   0.4123E-06   0.8101E-02  A           
  24:     0.09654      2.62686   0.1487E-06   0.2247E-01  A           
  25:     0.09654      2.62686   0.3621E-06   0.9223E-02  A           
  26:     0.09811      2.66969   0.2608E-06   0.1240E-01  A           
  27:     0.09811      2.66970   0.1264E-05   0.2559E-02  A           
  28:     0.09811      2.66971   0.1676E-05   0.1929E-02  A           
  29:     0.09846      2.67910   0.2782E-01   0.1154E-06  A           
  30:     0.09860      2.68317   0.1009E-04   0.3172E-03  A           
  31:     0.09860      2.68317   0.1937E-06   0.1653E-01  A           
  32:     0.09860      2.68317   0.3470E-04   0.9226E-04  A           
  33:     0.09957      2.70952   0.4176E-01   0.7517E-07  A           
  34:     0.10294      2.80113   0.4320E-04   0.6799E-04  A           
  35:     0.10294      2.80114   0.1207E-04   0.2434E-03  A           
  36:     0.10294      2.80114   0.2094E-06   0.1403E-01  A           
  37:     0.10327      2.81019   0.1699       0.1718E-07  A           
  38:     0.10411      2.83304   0.3004E-01   0.9557E-07  A           
  39:     0.10678      2.90561   0.2889E-01   0.9448E-07  A           
  40:     0.11185      3.04364   0.9854E-01   0.2525E-07  A           

 tau: electric dipole radiative lifetime (in seconds)


 Normal termination of EXCITATION program part





 =======================================================================
 Electrostatic potential at the Nuclei due to electrons and other nuclei
 =======================================================================
  
         Atom                  Potential
         ----                  ---------
     1)   C                  14.78084382
     2)   C                  14.72990433
     3)   C                  14.76388510
     4)   C                  14.76366380
     5)   C                  14.77590744
     6)   C                  14.77352231
     7)   C                  14.71373271
     8)   C                  14.72675907
     9)   H                   1.07049829
    10)   H                   1.07738695
    11)   H                   1.08713690
    12)   H                   1.09240605
    13)   C                  14.72068404
    14)   C                  14.71126745
    15)   C                  14.77815992
    16)   C                  14.72491837
    17)   C                  14.76971008
    18)   C                  14.75445834
    19)   C                  14.77143895
    20)   H                   1.09079162
    21)   C                  14.75664042
    22)   H                   1.05555879
    23)   H                   1.08385917
    24)   H                   1.07071620
    25)   O                  22.43147105
    26)   O                  22.43006168
    27)   N                  18.32540525
    28)   N                  18.33404818
    29)   C                  14.71951963
    30)   H                   1.07302022
    31)   H                   1.04762551
    32)   C                  14.64635903
    33)   O                  22.39256387
    34)   O                  22.32655250
    35)   C                  14.69048735
    36)   C                  14.77874952
    37)   C                  14.78072426
    38)   C                  14.77620783
    39)   H                   1.09168489
    40)   H                   1.10473800
    41)   H                   1.08643286
    42)   H                   1.09677339
    43)   H                   1.08766411
    44)   H                   1.10515263
    45)   H                   1.08462406
    46)   H                   1.09578672
    47)   H                   1.09288811
    48)   C                  14.72689311
    49)   C                  14.77690358
    50)   C                  14.76939948
    51)   C                  14.76904555
    52)   C                  14.76585087
    53)   C                  14.75957682
    54)   H                   1.09072054
    55)   H                   1.07684022
    56)   H                   1.08458106
    57)   H                   1.07819514
    58)   C                  14.54201779
    59)   F                  26.61636665
    60)   F                  26.61380183
    61)   F                  26.62271166
 Mulliken charges used for AMS results%charges...


    =====================
     CALCULATION RESULTS
    =====================

Energy (hartree)           -14.54188890


--------------
Atomic charges
--------------
  Index   Atom    Charge
      1      C   -0.1085
      2      C    0.1973
      3      C    0.1661
      4      C    0.2024
      5      C    0.1532
      6      C    0.2102
      7      C    0.4487
      8      C    0.0862
      9      H   -0.1515
     10      H   -0.1746
     11      H   -0.1702
     12      H   -0.1796
     13      C    0.1103
     14      C    0.4654
     15      C   -0.1049
     16      C    0.2020
     17      C    0.2188
     18      C    0.1603
     19      C    0.1577
     20      H   -0.1795
     21      C    0.2074
     22      H   -0.1620
     23      H   -0.1681
     24      H   -0.1694
     25      O   -0.6266
     26      O   -0.5823
     27      N   -0.2946
     28      N   -0.3123
     29      C    0.3716
     30      H   -0.0546
     31      H   -0.1279
     32      C    0.7747
     33      O   -0.6044
     34      O   -0.5309
     35      C    0.2168
     36      C    0.6112
     37      C    0.6117
     38      C    0.6224
     39      H   -0.1916
     40      H   -0.1746
     41      H   -0.1879
     42      H   -0.1920
     43      H   -0.1887
     44      H   -0.1735
     45      H   -0.1819
     46      H   -0.1923
     47      H   -0.1926
     48      C    0.1332
     49      C    0.1704
     50      C    0.1889
     51      C    0.2313
     52      C    0.2366
     53      C   -0.1505
     54      H   -0.0705
     55      H   -0.1565
     56      H   -0.1889
     57      H   -0.1743
     58      C    1.1974
     59      F   -0.4129
     60      F   -0.4131
     61      F   -0.4085


Dipole moment vector    (Debye):    -5.38222583   -0.23046976    3.72866876
              magnitude (Debye):     6.55167474


AMS application finished. Exiting.
NORMAL TERMINATION
     Total cpu time:    5386.34
  Total system time:      26.75
 Total elapsed time:    5604.64
