
     Program PWSCF v.7.4.1 starts on  4Jun2025 at 11:15:29 
        Git branch: develop
        Last git commit: 95bc91b9c3ff25f565697dd77c0850e0757537c6
        Last git commit date: Sun May 11 00:26:41 2025 +0000
        Last git commit subject: Merge branch 'print-cmake-flags' into 'develop'

     This program is part of the open-source Quantum ESPRESSO suite
     for quantum simulation of materials; please cite
         "P. Giannozzi et al., J. Phys.:Condens. Matter 21 395502 (2009);
         "P. Giannozzi et al., J. Phys.:Condens. Matter 29 465901 (2017);
         "P. Giannozzi et al., J. Chem. Phys. 152 154105 (2020);
          URL http://www.quantum-espresso.org", 
     in publications or presentations arising from this work. More details at
     http://www.quantum-espresso.org/quote

     Parallel version (MPI), running on    16 processors

     MPI processes distributed on     1 nodes
     1769845 MiB available memory on the printing compute node when the environment starts
 
     Waiting for input...
     Reading input from standard input

     Current dimensions of program PWSCF are:
     Max number of different atomic species (ntypx) = 10
     Max number of k-points (npk) =  40000
     Max angular momentum in pseudopotentials (lmaxx) =  4
     Message from routine setup:
     using ibrav=0 with symmetry is DISCOURAGED, use correct ibrav instead
 
     R & G space division:  proc/nbgrp/npool/nimage =      16
     Subspace diagonalization in iterative solution of the eigenvalue problem:
     a serial algorithm will be used

 
     Parallelization info
     --------------------
     sticks:   dense  smooth     PW     G-vecs:    dense   smooth      PW
     Min         426     426    106                26480    26480    3306
     Max         427     427    107                26483    26483    3309
     Sum        6817    6817   1701               423701   423701   52923
 
     Using Slab Decomposition
 


     bravais-lattice index     =            0
     lattice parameter (alat)  =      18.8973  a.u.
     unit-cell volume          =    6748.3345 (a.u.)^3
     number of atoms/cell      =            1
     number of atomic types    =            1
     number of electrons       =        22.00
     number of Kohn-Sham states=           30
     kinetic-energy cutoff     =      60.0000  Ry
     charge density cutoff     =     240.0000  Ry
     scf convergence threshold =      1.0E-09
     mixing beta               =       0.2000
     number of iterations used =            8  plain     mixing
     Exchange-correlation= PBE
                           (   1   4   3   4   0   0   0)
     Non magnetic calculation with spin-orbit


     celldm(1)=  18.897261  celldm(2)=   0.000000  celldm(3)=   0.000000
     celldm(4)=   0.000000  celldm(5)=   0.000000  celldm(6)=   0.000000

     crystal axes: (cart. coord. in units of alat)
               a(1) = (   1.000000   0.000000   0.000000 )  
               a(2) = (   0.000000   1.000000   0.000000 )  
               a(3) = (   0.000000   0.000000   1.000000 )  

     reciprocal axes: (cart. coord. in units 2 pi/alat)
               b(1) = (  1.000000  0.000000  0.000000 )  
               b(2) = (  0.000000  1.000000  0.000000 )  
               b(3) = (  0.000000  0.000000  1.000000 )  


     PseudoPot. # 1 for Fl read from file:
     ./Fl-6spd_r.upf
     MD5 check sum: b85b9b71a88d70a023db0b659bf16840
     Pseudo is Norm-conserving + core correction, Zval = 22.0
     Generated using ONCVPSP code by D. R. Hamann
     Using radial grid of 2000 points, 12 beta functions with: 
                l(1) =   0
                l(2) =   0
                l(3) =   1
                l(4) =   1
                l(5) =   1
                l(6) =   1
                l(7) =   2
                l(8) =   2
                l(9) =   2
               l(10) =   2
               l(11) =   3
               l(12) =   3

     atomic species   valence    mass     pseudopotential
     Fl               22.00   289.00000     Fl( 1.00)

     48 Sym. Ops., with inversion, found



   Cartesian axes

     site n.     atom                  positions (alat units)
         1        Fl     tau(   1) = (   0.5000000   0.5000000   0.5000000  )

     number of k points=     1  Gaussian smearing, width (Ry)=  0.0200
                       cart. coord. in units 2pi/alat
        k(    1) = (   0.0000000   0.0000000   0.0000000), wk =   1.0000000

     Dense  grid:   423701 G-vectors     FFT dimensions: (  96,  96,  96)

     Estimated max dynamical RAM per process >      69.64 MB

     Estimated total dynamical RAM >       1.09 GB

     Initial potential from superposition of free atoms

     starting charge      21.9929, renormalised to      22.0000

     negative rho (up, down):  5.503E-04 0.000E+00
     Starting wfcs are   26 randomized atomic wfcs +    4 random wfcs

     total cpu time spent up to now is        0.4 secs

     per-process dynamical memory:    69.9 Mb

     Self-consistent Calculation

     iteration #  1     ecut=    60.00 Ry     beta= 0.20
     Davidson diagonalization with overlap
     ethr =  1.00E-02,  avg # of iterations =  8.0

     Threshold (ethr) on eigenvalues was too large:
     Diagonalizing with lowered threshold

     Davidson diagonalization with overlap
     ethr =  2.62E-04,  avg # of iterations =  9.0

     negative rho (up, down):  4.346E-04 0.000E+00

     total cpu time spent up to now is        1.4 secs

     total energy              =    -385.14590832 Ry
     estimated scf accuracy    <       0.05718284 Ry

     iteration #  2     ecut=    60.00 Ry     beta= 0.20
     Davidson diagonalization with overlap
     ethr =  2.60E-04,  avg # of iterations =  1.0

     negative rho (up, down):  1.630E-04 0.000E+00

     total cpu time spent up to now is        1.8 secs

     total energy              =    -385.13128976 Ry
     estimated scf accuracy    <       0.02744492 Ry

     iteration #  3     ecut=    60.00 Ry     beta= 0.20
     Davidson diagonalization with overlap
     ethr =  1.25E-04,  avg # of iterations =  2.0

     negative rho (up, down):  1.324E-05 0.000E+00

     total cpu time spent up to now is        2.3 secs

     total energy              =    -385.13382160 Ry
     estimated scf accuracy    <       0.00267604 Ry

     iteration #  4     ecut=    60.00 Ry     beta= 0.20
     Davidson diagonalization with overlap
     ethr =  1.22E-05,  avg # of iterations = 13.0

     negative rho (up, down):  9.471E-06 0.000E+00

     total cpu time spent up to now is        2.9 secs

     total energy              =    -385.13418461 Ry
     estimated scf accuracy    <       0.00012214 Ry

     iteration #  5     ecut=    60.00 Ry     beta= 0.20
     Davidson diagonalization with overlap
     ethr =  5.55E-07,  avg # of iterations =  6.0

     negative rho (up, down):  1.395E-07 0.000E+00

     total cpu time spent up to now is        3.3 secs

     total energy              =    -385.13418542 Ry
     estimated scf accuracy    <       0.00003394 Ry

     iteration #  6     ecut=    60.00 Ry     beta= 0.20
     Davidson diagonalization with overlap
     ethr =  1.54E-07,  avg # of iterations =  2.0

     negative rho (up, down):  4.670E-08 0.000E+00

     total cpu time spent up to now is        3.8 secs

     total energy              =    -385.13418560 Ry
     estimated scf accuracy    <       0.00001630 Ry

     iteration #  7     ecut=    60.00 Ry     beta= 0.20
     Davidson diagonalization with overlap
     ethr =  7.41E-08,  avg # of iterations =  2.0

     negative rho (up, down):  1.111E-08 0.000E+00

     total cpu time spent up to now is        4.3 secs

     total energy              =    -385.13418649 Ry
     estimated scf accuracy    <       0.00000058 Ry

     iteration #  8     ecut=    60.00 Ry     beta= 0.20
     Davidson diagonalization with overlap
     ethr =  2.62E-09,  avg # of iterations =  1.0

     total cpu time spent up to now is        4.7 secs

     total energy              =    -385.13418606 Ry
     estimated scf accuracy    <       0.00000038 Ry

     iteration #  9     ecut=    60.00 Ry     beta= 0.20
     Davidson diagonalization with overlap
     ethr =  1.72E-09,  avg # of iterations =  2.0

     total cpu time spent up to now is        5.1 secs

     End of self-consistent calculation

          k = 0.0000 0.0000 0.0000 ( 52923 PWs)   bands (ev):

  -159.7248-159.7248-116.5575-116.5575 -63.5274 -63.5274 -63.5274 -63.5274
   -16.3492 -16.3492 -16.3492 -16.3492 -12.8753 -12.8753 -12.1018 -12.1018
   -12.1018 -12.1018 -12.1017 -12.1017  -4.3305  -4.3305  -0.7620  -0.7620
    -0.7620  -0.7620  -0.0608  -0.0608   1.4309   1.4309

     the Fermi energy is    -2.3556 ev

!    total energy              =    -385.13418613 Ry
     estimated scf accuracy    <          7.1E-10 Ry
     smearing contrib. (-TS)   =      -0.00000000 Ry
     internal energy E=F+TS    =    -385.13418613 Ry

     The total energy is F=E-TS. E is the sum of the following terms:
     one-electron contribution =    -463.00777125 Ry
     hartree contribution      =     217.20609269 Ry
     xc contribution           =     -66.66314224 Ry
     ewald contribution        =     -72.66936532 Ry

     convergence has been achieved in   9 iterations

     Writing all to output data dir ./pwscf.save/ :
     XML data file, charge density, pseudopotentials, collected wavefunctions
 
     init_run     :      0.24s CPU      0.31s WALL (       1 calls)
     electrons    :      4.52s CPU      4.71s WALL (       1 calls)

     Called by init_run:
     wfcinit      :      0.09s CPU      0.10s WALL (       1 calls)
     potinit      :      0.03s CPU      0.05s WALL (       1 calls)
     hinit0       :      0.02s CPU      0.03s WALL (       1 calls)

     Called by electrons:
     c_bands      :      3.16s CPU      3.22s WALL (      10 calls)
     sum_band     :      0.60s CPU      0.61s WALL (      10 calls)
     v_of_rho     :      0.28s CPU      0.29s WALL (      10 calls)
     mix_rho      :      0.44s CPU      0.49s WALL (      10 calls)

     Called by c_bands:
     init_us_2    :      0.07s CPU      0.07s WALL (      21 calls)
     cegterg      :      2.33s CPU      2.37s WALL (      10 calls)

     Called by *egterg:
     cdiaghg      :      0.04s CPU      0.05s WALL (      55 calls)
     h_psi        :      1.81s CPU      1.84s WALL (      57 calls)
     g_psi        :      0.01s CPU      0.01s WALL (      46 calls)

     Called by h_psi:
     h_psi:calbec :      0.10s CPU      0.10s WALL (      57 calls)
     vloc_psi     :      1.56s CPU      1.58s WALL (      57 calls)
                                        0.00s GPU  (      57 calls)
     add_vuspsi   :      0.11s CPU      0.11s WALL (      57 calls)

     General routines
     calbec       :      0.10s CPU      0.10s WALL (      57 calls)
     fft          :      0.22s CPU      0.24s WALL (     158 calls)
     ffts         :      0.04s CPU      0.04s WALL (      40 calls)
     fftw         :      1.42s CPU      1.44s WALL (    3708 calls)
 
     Parallel routines
 
     PWSCF        :      4.87s CPU      5.27s WALL

 
   This run was terminated on:  11:15:34   4Jun2025            

=------------------------------------------------------------------------------=
   JOB DONE.
=------------------------------------------------------------------------------=
