

 Parallel Execution: Process Information
 ==============================================================================
 Rank   Node Name                              NodeID   MyNodeRank  NodeMaster
    0   ubuntu-kch                                0          0          0
    1   ubuntu-kch                                0          1         -1
    2   ubuntu-kch                                0          2         -1
    3   ubuntu-kch                                0          3         -1
 ==============================================================================


May use up to 7570MB of RAM as shared memory on node 0

 *******************************************************************************
 *                                                                             *
 *  --------------------------------                                           *
 *   Amsterdam Modeling Suite (AMS)              2021.105                      *
 *  --------------------------------                                           *
 *                                               r97261 2021-09-16             *
 *                                                                             *
 *                                                                             *
 *                              =================                              *
 *                              |               |                              *
 *                              |     A M S     |                              *
 *                              |               |                              *
 *                              =================                              *
 *                                                                             *
 *                                                                             *
 *   Online information and documentation:  https://www.scm.com/support/       *
 *   E-mail:  support@scm.com   info@scm.com                                   *
 *                                                                             *
 *   Scientific publications using AMS results must be properly referenced     *
 *   See the User Manuals (or the web site) for recommended citations          *
 *   The terms and conditions of the End User License Agreement apply to       *
 *   the use of AMS, https://www.scm.com/license-terms/                        *
 *                                                                             *
 **********************  x86_64_linux_intel / intelmpi  ************************
 
 Licensed to: Dr. Miroslav Ilias / Matej Bel University, Department Chemistry, Fac. Natural Sciences / Banska Bystrica / SLOVAKIA
 SCM User ID: u17848
  
 AMS 2021.105  RunTime: Dec15-2021 09:54:31  ShM Nodes: 1  Procs: 4

 AMS jobname: ams
 AMS jobid  : 1581882106

 Start   directory: /home/milias/work/projects/open-collection/theoretical_chemistry/projects/nmr_diplomovky/reference_compounds/phosphoric_acid/ams/pbe0_tz2p_good/cosmo-chcl3/srzora/nmr_opbe_qz4p-j_good-cosmo-chcl3-geometry_pbe0-tzp-cosmo_chcl3/tmp.milias.646859.0.noindex/
 Results directory: /home/milias/work/projects/open-collection/theoretical_chemistry/projects/nmr_diplomovky/reference_compounds/phosphoric_acid/ams/pbe0_tz2p_good/cosmo-chcl3/srzora/nmr_opbe_qz4p-j_good-cosmo-chcl3-geometry_pbe0-tzp-cosmo_chcl3/phosphoric_acid.srzora_nmrshield_opbe_qz4p-j_good_cosmo-chcl3.results/
 Scratch directory: /tmp/amstmp_ams_kid0.1581882106/


 Communication costs MPI_COMM_WORLD:      0.263 usec per message,   0.0034 usec per 8-byte item
 Communication costs for intra-node:      0.239 usec per message,   0.0034 usec per 8-byte item

 RNG seed: 728330310 432485868 935591711 1653965852 1555588032 -118561598 1854456676 1096535286



                      ************************************************************************
                      *  ADF 2021.105  RunTime: Dec15-2021 09:54:32  ShM Nodes: 1  Procs: 4  *
                      ************************************************************************
  
       ****************************
       * SINGLE POINT CALCULATION *
       ****************************
 
--------
Geometry
--------
Formula: H3O4P
Atoms
  Index Symbol   x (angstrom)   y (angstrom)   z (angstrom)
      1      P    -0.00000000     0.00000000    -0.15568231       adf.R=1.850
      2      O    -1.38033917    -0.35051973     0.54001942       adf.R=1.517
      3      O     0.99372858    -1.02014892     0.54001942       adf.R=1.517
      4      O     0.38661059     1.37066866     0.54001942       adf.R=1.517
      5      O    -0.00000000     0.00000000    -1.62454013       adf.R=1.517
      6      H    -2.13170796     0.01671246     0.05338806       adf.R=1.350
      7      H     1.05138056    -1.85446947     0.05338806       adf.R=1.350
      8      H     1.08032739     1.83775701     0.05338806       adf.R=1.350
 
Total System Charge             0.00000
Bonding info available!
 
 
----------------
ADF Engine Input
----------------
 
 Basis
 Type QZ4P-J
 Core None
 End
 Save TAPE10
 XC
 GGA OPBE
 End
 Symmetry NOSYM
 Solvation
 Surf Delley
 Solv name=Chloroform cav0=0.0 cav1=0.0067639
 Charged method=CONJ
 C-Mat POT
 SCF VAR ALL
 CSMRSP
 End
 NumericalQuality Good
 

 Title: *** (NO TITLE) ***

 *** adf ***



 ===========================
 A T T A C H E D   F I L E S
 ===========================
  



 ===============================
 M O D E L   P A R A M E T E R S
 ===============================
  
 DENSITY FUNCTIONAL POTENTIAL (scf)
    LDA:                               VWN                                      
    Gradient Corrections:              OPTX PBEc                               == Not Default ==

 SPIN  (restricted / unrestr.)
    Molecule:                          Restricted                               
    Fragments:                         Restricted                               

 OTHER ASPECTS
    Relativistic Corrections:          scalar (ZORA,MAPA)                       

    Nuclear Charge Density Model:      Point Charge Nuclei                      
    Core Treatment:                    Frozen Orbital(s)                        

    Hyperfine or Zeeman Interaction:   ---                                      

 SOLVATION
-------------------------------------------

  The Delley construction of COSMO surface surface is calculated

       Division Level for Surface Triangles (NDIV)                  3
       Final Division Level for Triangles (NFDIV)                   1
       Radius of the Solvent (RSOL)                           3.17000 angstr
  Dielectric Constant (EPSL)                                  4.80000

       COSMO equation is solved iteratively-               conjugate-gradient

       Maximun of Iterations for Charges (NCIX)                  1000
       Criterion for Charge convergence (CCNV)                1.0E-08

  COSMO charges included variationally in SCF

       COSMO included at every SCF cycle

  Geometry-dependent empirical factor                         0.00000

  C-Matrix calculated in cspmtx

  In cspmtx, C-Matrix calculated using fitted potential

-------------------------------------------



 Fragment File(s)
 ----------------
 P:
         file : /home/milias/work/projects/open-collection/theoretical_chemistry/projects/nmr_diplomovky/reference_compounds/phosphoric_acid/ams/pbe0_tz2p_good/cosmo-chcl3/srzora/nmr_opbe_qz4p-j_good-cosmo-chcl3-geometry_pbe0-tzp-cosmo_chcl3/phosphoric_acid.srzora_nmrshield_opbe_qz4p-j_good_cosmo-chcl3.results/t21.7140BDE6.P
         jobid: 0
         title: Phosphorus (QZ4P-J)
 O:
         file : /home/milias/work/projects/open-collection/theoretical_chemistry/projects/nmr_diplomovky/reference_compounds/phosphoric_acid/ams/pbe0_tz2p_good/cosmo-chcl3/srzora/nmr_opbe_qz4p-j_good-cosmo-chcl3-geometry_pbe0-tzp-cosmo_chcl3/phosphoric_acid.srzora_nmrshield_opbe_qz4p-j_good_cosmo-chcl3.results/t21.26027192.O
         jobid: 0
         title: Oxygen (QZ4P-J)
 H:
         file : /home/milias/work/projects/open-collection/theoretical_chemistry/projects/nmr_diplomovky/reference_compounds/phosphoric_acid/ams/pbe0_tz2p_good/cosmo-chcl3/srzora/nmr_opbe_qz4p-j_good-cosmo-chcl3-geometry_pbe0-tzp-cosmo_chcl3/phosphoric_acid.srzora_nmrshield_opbe_qz4p-j_good_cosmo-chcl3.results/t21.72994DB.H
         jobid: 0
         title: Hydrogen (QZ4P-J)



 ===============
 G E O M E T R Y  ***  3D  Molecule  ***
 ===============
  

 ATOMS
 =====                            X Y Z                    CHARGE                     RADIUS
                                (Angstrom)             Nucl     +Core       At.Mass (Angstrom)
                       --------------------------    ----------------       ------- ----------
    1  P              -0.0000    0.0000   -0.1557     15.00     15.00       30.9738    1.8500
    2  O              -1.3803   -0.3505    0.5400      8.00      8.00       15.9949    1.5170
    3  O               0.9937   -1.0201    0.5400      8.00      8.00       15.9949    1.5170
    4  O               0.3866    1.3707    0.5400      8.00      8.00       15.9949    1.5170
    5  O              -0.0000    0.0000   -1.6245      8.00      8.00       15.9949    1.5170
    6  H              -2.1317    0.0167    0.0534      1.00      1.00        1.0078    1.3500
    7  H               1.0514   -1.8545    0.0534      1.00      1.00        1.0078    1.3500
    8  H               1.0803    1.8378    0.0534      1.00      1.00        1.0078    1.3500


 FRAGMENTS
 =========                                     Atoms in this Fragment     Cart. coord.s (Angstrom)
                                               -------------------------------------------------------
    1  P                                                 1  P           -0.0000    0.0000   -0.1557
    2  O                                                 2  O           -1.3803   -0.3505    0.5400
    3  O                                                 3  O            0.9937   -1.0201    0.5400
    4  O                                                 4  O            0.3866    1.3707    0.5400
    5  O                                                 5  O           -0.0000    0.0000   -1.6245
    6  H                                                 6  H           -2.1317    0.0167    0.0534
    7  H                                                 7  H            1.0514   -1.8545    0.0534
    8  H                                                 8  H            1.0803    1.8378    0.0534


 Interatomic Distance Matrix (Angstrom)
 --------------------------------------

   1)     0.000
   2)     1.585   0.000
   3)     1.585   2.467   0.000
   4)     1.585   2.467   2.467   0.000
   5)     1.469   2.591   2.591   2.591   0.000
   6)     2.142   0.968   3.329   2.900   2.713   0.000
   7)     2.142   2.900   0.968   3.329   2.713   3.692   0.000
   8)     2.142   3.329   2.900   0.968   2.713   3.692   3.692   0.000

 Min. Distance =    0.9676
 Max. Distance =    3.6923



 =====================================
 S Y M M E T R Y ,   E L E C T R O N S
 =====================================
  
 Symmetry: NOSYM

 Irreducible Representations, including subspecies
 -------------------------------------------------
 A


 Configuration of Valence Electrons
 ==================================
 ( determined in the SCF procedure )

 Total:   50

 Net Charge: 0 (Nuclei minus Electrons)

 Aufbau principle for MO occupations will be applied through SCF cycle no.     150
 Thereafter, the program will assign electrons to MOs that are spatially
 similar to the occupied MOs in a "reference" cycle ("KeepOrbitals").
 The reference cycle is always the PREVIOUS cycle: it will evolve with
 the SCF procedure.
1
 ***************************************************************************************************



                                      ****************************************
                                      *  B U I L D : (Fragments, Functions)  *
                                      ****************************************
  



 =======
 S F O s  ***  (Symmetrized Fragment Orbitals)  ***
 =======
  
 SFOs are linear combinations of (valence) Fragment Orbitals (FOs), such that the SFOs transform as the
 irreducible representations of the (molecular) symmetry group. Each SFO is therefore characterized by
 an irrep of the molecule and by a few (or only one) generating FOs.
 The SFOs constitute a symmetry-adapted basis for the Fock matrix. The MO eigenvector coefficients in
 this basis provide a direct interpretation of the MOs in terms of Frontier Orbital Theory.

 The SFOs are combined with auxiliary Core Functions (CFs) to ensure orthogonalization on the (frozen)
 Core Orbitals (COs). The Core-orthogonalized SFOs (CSFOs) constitute the true Fock basis.

 The FOs, and hence also the (C)SFOs are combinations of the elementary basis functions (BAS). The basis
 functions that participate in the description of the SFOs depend on the irrep. The indices of the
 involved functions are printed below for each irrep.
 (The complete list of primitive basis functions is printed in another section)

 Total nr. of (C)SFOs (summation over all irreps) :   505

 NOTE: a (C)SFO that is defined as a combination of more than one FO is usually NOT normalized.



                                       === A ===
 Nr. of SFOs :  505
 Cartesian basis functions that participate in this irrep (total number =   583) :
      1     2     3     4     5     6     7     8     9    10
     11    12    13    14    15    18    21    24    27    30
     33    36    39    42    16    19    22    25    28    31
     34    37    40    43    17    20    23    26    29    32
     35    38    41    44    45    51    57    63    69    46
     52    58    64    70    47    53    59    65    71    48
     54    60    66    72    49    55    61    67    73    50
     56    62    68    74    75    85    95   105    76    86
     96   106    77    87    97   107    78    88    98   108
     79    89    99   109    80    90   100   110    81    91
    101   111    82    92   102   112    83    93   103   113
     84    94   104   114   115   116   117   118   119   120
    121   122   123   124   125   126   127   128   131   134
    137   140   143   146   129   132   135   138   141   144
    147   130   133   136   139   142   145   148   149   155
    161   167   150   156   162   168   151   157   163   169
    152   158   164   170   153   159   165   171   154   160
    166   172   173   183   193   174   184   194   175   185
    195   176   186   196   177   187   197   178   188   198
    179   189   199   180   190   200   181   191   201   182
    192   202   203   204   205   206   207   208   209   210
    211   212   213   214   215   216   219   222   225   228
    231   234   217   220   223   226   229   232   235   218
    221   224   227   230   233   236   237   243   249   255
    238   244   250   256   239   245   251   257   240   246
    252   258   241   247   253   259   242   248   254   260
    261   271   281   262   272   282   263   273   283   264
    274   284   265   275   285   266   276   286   267   277
    287   268   278   288   269   279   289   270   280   290
    291   292   293   294   295   296   297   298   299   300
    301   302   303   304   307   310   313   316   319   322
    305   308   311   314   317   320   323   306   309   312
    315   318   321   324   325   331   337   343   326   332
    338   344   327   333   339   345   328   334   340   346
    329   335   341   347   330   336   342   348   349   359
    369   350   360   370   351   361   371   352   362   372
    353   363   373   354   364   374   355   365   375   356
    366   376   357   367   377   358   368   378   379   380
    381   382   383   384   385   386   387   388   389   390
    391   392   395   398   401   404   407   410   393   396
    399   402   405   408   411   394   397   400   403   406
    409   412   413   419   425   431   414   420   426   432
    415   421   427   433   416   422   428   434   417   423
    429   435   418   424   430   436   437   447   457   438
    448   458   439   449   459   440   450   460   441   451
    461   442   452   462   443   453   463   444   454   464
    445   455   465   446   456   466   467   468   469   470
    471   472   473   474   475   476   479   482   485   477
    480   483   486   478   481   484   487   488   494   500
    489   495   501   490   496   502   491   497   503   492
    498   504   493   499   505   506   507   508   509   510
    511   512   513   514   515   518   521   524   516   519
    522   525   517   520   523   526   527   533   539   528
    534   540   529   535   541   530   536   542   531   537
    543   532   538   544   545   546   547   548   549   550
    551   552   553   554   557   560   563   555   558   561
    564   556   559   562   565   566   572   578   567   573
    579   568   574   580   569   575   581   570   576   582
    571   577   583

    SFO  (index         Fragment          Generating    Expansion in Fragment Orbitals
  indx  incl.CFs)   Occup   Orb.Energy   FragmentType  Coeff.   Orbital     on Fragment
 --------------------------------------------------------------------------------------
     1       1      2.000     -76.546 au  P             1.00      1 S               1
                        (   -2082.920 eV)
     2       2      2.000      -6.430 au  P             1.00      2 S               1
                        (    -174.974 eV)
     3       3      2.000      -0.514 au  P             1.00      3 S               1
                        (     -13.974 eV)
     4       4       --         0.086 au  P             1.00      4 S               1
                        (       2.333 eV)
     5       5       --         0.832 au  P             1.00      5 S               1
                        (      22.630 eV)
     6       6       --         3.396 au  P             1.00      6 S               1
                        (      92.397 eV)
     7       7       --        12.572 au  P             1.00      7 S               1
                        (     342.101 eV)
     8       8       --        54.485 au  P             1.00      8 S               1
                        (    1482.609 eV)
     9       9       --       241.985 au  P             1.00      9 S               1
                        (    6584.746 eV)
    10      10       --      1230.484 au  P             1.00     10 S               1
                        (   33483.182 eV)
    11      11       --      6745.688 au  P             1.00     11 S               1
                        (  183559.519 eV)
    12      12       --     25622.673 au  P             1.00     12 S               1
                        (  697228.395 eV)
    13      13       --     48717.582 au  P             1.00     13 S               1
                        ( 1325672.850 eV)
    14      14       --    104642.886 au  P             1.00     14 S               1
                        ( 2847477.811 eV)
    15      15      2.000      -4.598 au  P             1.00      1 P:x             1
                        (    -125.115 eV)
    16      16      1.000      -0.203 au  P             1.00      2 P:x             1
                        (      -5.514 eV)
    17      17       --         0.071 au  P             1.00      3 P:x             1
                        (       1.921 eV)
    18      18       --         0.591 au  P             1.00      4 P:x             1
                        (      16.095 eV)
    19      19       --         2.496 au  P             1.00      5 P:x             1
                        (      67.919 eV)
    20      20       --         9.036 au  P             1.00      6 P:x             1
                        (     245.873 eV)
    21      21       --        35.331 au  P             1.00      7 P:x             1
                        (     961.412 eV)
    22      22       --       162.033 au  P             1.00      8 P:x             1
                        (    4409.151 eV)
    23      23       --      1028.218 au  P             1.00      9 P:x             1
                        (   27979.227 eV)
    24      24       --      6827.616 au  P             1.00     10 P:x             1
                        (  185788.883 eV)
    25      25      2.000      -4.598 au  P             1.00      1 P:y             1
                        (    -125.115 eV)
    26      26      1.000      -0.203 au  P             1.00      2 P:y             1
                        (      -5.514 eV)
    27      27       --         0.071 au  P             1.00      3 P:y             1
                        (       1.921 eV)
    28      28       --         0.591 au  P             1.00      4 P:y             1
                        (      16.095 eV)
    29      29       --         2.496 au  P             1.00      5 P:y             1
                        (      67.919 eV)
    30      30       --         9.036 au  P             1.00      6 P:y             1
                        (     245.873 eV)
    31      31       --        35.331 au  P             1.00      7 P:y             1
                        (     961.412 eV)
    32      32       --       162.033 au  P             1.00      8 P:y             1
                        (    4409.151 eV)
    33      33       --      1028.218 au  P             1.00      9 P:y             1
                        (   27979.227 eV)
    34      34       --      6827.616 au  P             1.00     10 P:y             1
                        (  185788.883 eV)
    35      35      2.000      -4.598 au  P             1.00      1 P:z             1
                        (    -125.115 eV)
    36      36      1.000      -0.203 au  P             1.00      2 P:z             1
                        (      -5.514 eV)
    37      37       --         0.071 au  P             1.00      3 P:z             1
                        (       1.921 eV)
    38      38       --         0.591 au  P             1.00      4 P:z             1
                        (      16.095 eV)
    39      39       --         2.496 au  P             1.00      5 P:z             1
                        (      67.919 eV)
    40      40       --         9.036 au  P             1.00      6 P:z             1
                        (     245.873 eV)
    41      41       --        35.331 au  P             1.00      7 P:z             1
                        (     961.412 eV)
    42      42       --       162.033 au  P             1.00      8 P:z             1
                        (    4409.151 eV)
    43      43       --      1028.218 au  P             1.00      9 P:z             1
                        (   27979.227 eV)
    44      44       --      6827.616 au  P             1.00     10 P:z             1
                        (  185788.883 eV)
    45      45       --         0.127 au  P             1.00      1 D:z2            1
                        (       3.467 eV)
    46      46       --         0.653 au  P             1.00      2 D:z2            1
                        (      17.765 eV)
    47      47       --         3.481 au  P             1.00      3 D:z2            1
                        (      94.722 eV)
    48      48       --        19.885 au  P             1.00      4 D:z2            1
                        (     541.095 eV)
    49      49       --       165.184 au  P             1.00      5 D:z2            1
                        (    4494.897 eV)
    50      50       --         0.127 au  P             1.00      1 D:x2-y2         1
                        (       3.467 eV)
    51      51       --         0.653 au  P             1.00      2 D:x2-y2         1
                        (      17.765 eV)
    52      52       --         3.481 au  P             1.00      3 D:x2-y2         1
                        (      94.722 eV)
    53      53       --        19.885 au  P             1.00      4 D:x2-y2         1
                        (     541.095 eV)
    54      54       --       165.184 au  P             1.00      5 D:x2-y2         1
                        (    4494.897 eV)
    55      55       --         0.127 au  P             1.00      1 D:xy            1
                        (       3.467 eV)
    56      56       --         0.653 au  P             1.00      2 D:xy            1
                        (      17.765 eV)
    57      57       --         3.481 au  P             1.00      3 D:xy            1
                        (      94.722 eV)
    58      58       --        19.885 au  P             1.00      4 D:xy            1
                        (     541.095 eV)
    59      59       --       165.184 au  P             1.00      5 D:xy            1
                        (    4494.897 eV)
    60      60       --         0.127 au  P             1.00      1 D:xz            1
                        (       3.467 eV)
    61      61       --         0.653 au  P             1.00      2 D:xz            1
                        (      17.765 eV)
    62      62       --         3.481 au  P             1.00      3 D:xz            1
                        (      94.722 eV)
    63      63       --        19.885 au  P             1.00      4 D:xz            1
                        (     541.095 eV)
    64      64       --       165.184 au  P             1.00      5 D:xz            1
                        (    4494.897 eV)
    65      65       --         0.127 au  P             1.00      1 D:yz            1
                        (       3.467 eV)
    66      66       --         0.653 au  P             1.00      2 D:yz            1
                        (      17.765 eV)
    67      67       --         3.481 au  P             1.00      3 D:yz            1
                        (      94.722 eV)
    68      68       --        19.885 au  P             1.00      4 D:yz            1
                        (     541.095 eV)
    69      69       --       165.184 au  P             1.00      5 D:yz            1
                        (    4494.897 eV)
    70      70       --         0.439 au  P             1.00      1 F:z3            1
                        (      11.940 eV)
    71      71       --         1.933 au  P             1.00      2 F:z3            1
                        (      52.588 eV)
    72      72       --         9.077 au  P             1.00      3 F:z3            1
                        (     247.009 eV)
    73      73       --        62.301 au  P             1.00      4 F:z3            1
                        (    1695.308 eV)
    74      74       --         0.439 au  P             1.00      1 F:z             1
                        (      11.940 eV)
    75      75       --         1.933 au  P             1.00      2 F:z             1
                        (      52.588 eV)
    76      76       --         9.077 au  P             1.00      3 F:z             1
                        (     247.009 eV)
    77      77       --        62.301 au  P             1.00      4 F:z             1
                        (    1695.308 eV)
    78      78       --         0.439 au  P             1.00      1 F:xyz           1
                        (      11.940 eV)
    79      79       --         1.933 au  P             1.00      2 F:xyz           1
                        (      52.588 eV)
    80      80       --         9.077 au  P             1.00      3 F:xyz           1
                        (     247.009 eV)
    81      81       --        62.301 au  P             1.00      4 F:xyz           1
                        (    1695.308 eV)
    82      82       --         0.439 au  P             1.00      1 F:z2x           1
                        (      11.940 eV)
    83      83       --         1.933 au  P             1.00      2 F:z2x           1
                        (      52.588 eV)
    84      84       --         9.077 au  P             1.00      3 F:z2x           1
                        (     247.009 eV)
    85      85       --        62.301 au  P             1.00      4 F:z2x           1
                        (    1695.308 eV)
    86      86       --         0.439 au  P             1.00      1 F:z2y           1
                        (      11.940 eV)
    87      87       --         1.933 au  P             1.00      2 F:z2y           1
                        (      52.588 eV)
    88      88       --         9.077 au  P             1.00      3 F:z2y           1
                        (     247.009 eV)
    89      89       --        62.301 au  P             1.00      4 F:z2y           1
                        (    1695.308 eV)
    90      90       --         0.439 au  P             1.00      1 F:x             1
                        (      11.940 eV)
    91      91       --         1.933 au  P             1.00      2 F:x             1
                        (      52.588 eV)
    92      92       --         9.077 au  P             1.00      3 F:x             1
                        (     247.009 eV)
    93      93       --        62.301 au  P             1.00      4 F:x             1
                        (    1695.308 eV)
    94      94       --         0.439 au  P             1.00      1 F:y             1
                        (      11.940 eV)
    95      95       --         1.933 au  P             1.00      2 F:y             1
                        (      52.588 eV)
    96      96       --         9.077 au  P             1.00      3 F:y             1
                        (     247.009 eV)
    97      97       --        62.301 au  P             1.00      4 F:y             1
                        (    1695.308 eV)
    98      98      2.000     -18.908 au  O             1.00      1 S               2
                        (    -514.500 eV)
    99      99      2.000      -0.891 au  O             1.00      2 S               2
                        (     -24.256 eV)
   100     100       --         0.009 au  O             1.00      3 S               2
                        (       0.253 eV)
   101     101       --         0.476 au  O             1.00      4 S               2
                        (      12.957 eV)
   102     102       --         2.386 au  O             1.00      5 S               2
                        (      64.915 eV)
   103     103       --        10.493 au  O             1.00      6 S               2
                        (     285.533 eV)
   104     104       --        39.695 au  O             1.00      7 S               2
                        (    1080.156 eV)
   105     105       --       149.118 au  O             1.00      8 S               2
                        (    4057.707 eV)
   106     106       --       650.743 au  O             1.00      9 S               2
                        (   17707.606 eV)
   107     107       --      3350.915 au  O             1.00     10 S               2
                        (   91183.024 eV)
   108     108       --     15550.069 au  O             1.00     11 S               2
                        (  423138.902 eV)
   109     109       --     36955.126 au  O             1.00     12 S               2
                        ( 1005600.131 eV)
   110     110       --     59716.576 au  O             1.00     13 S               2
                        ( 1624970.717 eV)
   111     111      1.333      -0.329 au  O             1.00      1 P:x             2
                        (      -8.948 eV)
   112     112       --         0.199 au  O             1.00      2 P:x             2
                        (       5.425 eV)
   113     113       --         1.589 au  O             1.00      3 P:x             2
                        (      43.237 eV)
   114     114       --         9.858 au  O             1.00      4 P:x             2
                        (     268.254 eV)
   115     115       --        72.513 au  O             1.00      5 P:x             2
                        (    1973.187 eV)
   116     116       --       485.875 au  O             1.00      6 P:x             2
                        (   13221.328 eV)
   117     117       --      3534.463 au  O             1.00      7 P:x             2
                        (   96177.635 eV)
   118     118      1.333      -0.329 au  O             1.00      1 P:y             2
                        (      -8.948 eV)
   119     119       --         0.199 au  O             1.00      2 P:y             2
                        (       5.425 eV)
   120     120       --         1.589 au  O             1.00      3 P:y             2
                        (      43.237 eV)
   121     121       --         9.858 au  O             1.00      4 P:y             2
                        (     268.254 eV)
   122     122       --        72.513 au  O             1.00      5 P:y             2
                        (    1973.187 eV)
   123     123       --       485.875 au  O             1.00      6 P:y             2
                        (   13221.328 eV)
   124     124       --      3534.463 au  O             1.00      7 P:y             2
                        (   96177.635 eV)
   125     125      1.333      -0.329 au  O             1.00      1 P:z             2
                        (      -8.948 eV)
   126     126       --         0.199 au  O             1.00      2 P:z             2
                        (       5.425 eV)
   127     127       --         1.589 au  O             1.00      3 P:z             2
                        (      43.237 eV)
   128     128       --         9.858 au  O             1.00      4 P:z             2
                        (     268.254 eV)
   129     129       --        72.513 au  O             1.00      5 P:z             2
                        (    1973.187 eV)
   130     130       --       485.875 au  O             1.00      6 P:z             2
                        (   13221.328 eV)
   131     131       --      3534.463 au  O             1.00      7 P:z             2
                        (   96177.635 eV)
   132     132       --         0.501 au  O             1.00      1 D:z2            2
                        (      13.639 eV)
   133     133       --         2.020 au  O             1.00      2 D:z2            2
                        (      54.954 eV)
   134     134       --         8.954 au  O             1.00      3 D:z2            2
                        (     243.653 eV)
   135     135       --        49.942 au  O             1.00      4 D:z2            2
                        (    1358.990 eV)
   136     136       --         0.501 au  O             1.00      1 D:x2-y2         2
                        (      13.639 eV)
   137     137       --         2.020 au  O             1.00      2 D:x2-y2         2
                        (      54.954 eV)
   138     138       --         8.954 au  O             1.00      3 D:x2-y2         2
                        (     243.653 eV)
   139     139       --        49.942 au  O             1.00      4 D:x2-y2         2
                        (    1358.990 eV)
   140     140       --         0.501 au  O             1.00      1 D:xy            2
                        (      13.639 eV)
   141     141       --         2.020 au  O             1.00      2 D:xy            2
                        (      54.954 eV)
   142     142       --         8.954 au  O             1.00      3 D:xy            2
                        (     243.653 eV)
   143     143       --        49.942 au  O             1.00      4 D:xy            2
                        (    1358.990 eV)
   144     144       --         0.501 au  O             1.00      1 D:xz            2
                        (      13.639 eV)
   145     145       --         2.020 au  O             1.00      2 D:xz            2
                        (      54.954 eV)
   146     146       --         8.954 au  O             1.00      3 D:xz            2
                        (     243.653 eV)
   147     147       --        49.942 au  O             1.00      4 D:xz            2
                        (    1358.990 eV)
   148     148       --         0.501 au  O             1.00      1 D:yz            2
                        (      13.639 eV)
   149     149       --         2.020 au  O             1.00      2 D:yz            2
                        (      54.954 eV)
   150     150       --         8.954 au  O             1.00      3 D:yz            2
                        (     243.653 eV)
   151     151       --        49.942 au  O             1.00      4 D:yz            2
                        (    1358.990 eV)
   152     152       --         1.340 au  O             1.00      1 F:z3            2
                        (      36.462 eV)
   153     153       --         6.162 au  O             1.00      2 F:z3            2
                        (     167.664 eV)
   154     154       --        30.899 au  O             1.00      3 F:z3            2
                        (     840.794 eV)
   155     155       --         1.340 au  O             1.00      1 F:z             2
                        (      36.462 eV)
   156     156       --         6.162 au  O             1.00      2 F:z             2
                        (     167.664 eV)
   157     157       --        30.899 au  O             1.00      3 F:z             2
                        (     840.794 eV)
   158     158       --         1.340 au  O             1.00      1 F:xyz           2
                        (      36.462 eV)
   159     159       --         6.162 au  O             1.00      2 F:xyz           2
                        (     167.664 eV)
   160     160       --        30.899 au  O             1.00      3 F:xyz           2
                        (     840.794 eV)
   161     161       --         1.340 au  O             1.00      1 F:z2x           2
                        (      36.462 eV)
   162     162       --         6.162 au  O             1.00      2 F:z2x           2
                        (     167.664 eV)
   163     163       --        30.899 au  O             1.00      3 F:z2x           2
                        (     840.794 eV)
   164     164       --         1.340 au  O             1.00      1 F:z2y           2
                        (      36.462 eV)
   165     165       --         6.162 au  O             1.00      2 F:z2y           2
                        (     167.664 eV)
   166     166       --        30.899 au  O             1.00      3 F:z2y           2
                        (     840.794 eV)
   167     167       --         1.340 au  O             1.00      1 F:x             2
                        (      36.462 eV)
   168     168       --         6.162 au  O             1.00      2 F:x             2
                        (     167.664 eV)
   169     169       --        30.899 au  O             1.00      3 F:x             2
                        (     840.794 eV)
   170     170       --         1.340 au  O             1.00      1 F:y             2
                        (      36.462 eV)
   171     171       --         6.162 au  O             1.00      2 F:y             2
                        (     167.664 eV)
   172     172       --        30.899 au  O             1.00      3 F:y             2
                        (     840.794 eV)
   173     173      2.000     -18.908 au  O             1.00      1 S               3
                        (    -514.500 eV)
   174     174      2.000      -0.891 au  O             1.00      2 S               3
                        (     -24.256 eV)
   175     175       --         0.009 au  O             1.00      3 S               3
                        (       0.253 eV)
   176     176       --         0.476 au  O             1.00      4 S               3
                        (      12.957 eV)
   177     177       --         2.386 au  O             1.00      5 S               3
                        (      64.915 eV)
   178     178       --        10.493 au  O             1.00      6 S               3
                        (     285.533 eV)
   179     179       --        39.695 au  O             1.00      7 S               3
                        (    1080.156 eV)
   180     180       --       149.118 au  O             1.00      8 S               3
                        (    4057.707 eV)
   181     181       --       650.743 au  O             1.00      9 S               3
                        (   17707.606 eV)
   182     182       --      3350.915 au  O             1.00     10 S               3
                        (   91183.024 eV)
   183     183       --     15550.069 au  O             1.00     11 S               3
                        (  423138.902 eV)
   184     184       --     36955.126 au  O             1.00     12 S               3
                        ( 1005600.131 eV)
   185     185       --     59716.576 au  O             1.00     13 S               3
                        ( 1624970.717 eV)
   186     186      1.333      -0.329 au  O             1.00      1 P:x             3
                        (      -8.948 eV)
   187     187       --         0.199 au  O             1.00      2 P:x             3
                        (       5.425 eV)
   188     188       --         1.589 au  O             1.00      3 P:x             3
                        (      43.237 eV)
   189     189       --         9.858 au  O             1.00      4 P:x             3
                        (     268.254 eV)
   190     190       --        72.513 au  O             1.00      5 P:x             3
                        (    1973.187 eV)
   191     191       --       485.875 au  O             1.00      6 P:x             3
                        (   13221.328 eV)
   192     192       --      3534.463 au  O             1.00      7 P:x             3
                        (   96177.635 eV)
   193     193      1.333      -0.329 au  O             1.00      1 P:y             3
                        (      -8.948 eV)
   194     194       --         0.199 au  O             1.00      2 P:y             3
                        (       5.425 eV)
   195     195       --         1.589 au  O             1.00      3 P:y             3
                        (      43.237 eV)
   196     196       --         9.858 au  O             1.00      4 P:y             3
                        (     268.254 eV)
   197     197       --        72.513 au  O             1.00      5 P:y             3
                        (    1973.187 eV)
   198     198       --       485.875 au  O             1.00      6 P:y             3
                        (   13221.328 eV)
   199     199       --      3534.463 au  O             1.00      7 P:y             3
                        (   96177.635 eV)
   200     200      1.333      -0.329 au  O             1.00      1 P:z             3
                        (      -8.948 eV)
   201     201       --         0.199 au  O             1.00      2 P:z             3
                        (       5.425 eV)
   202     202       --         1.589 au  O             1.00      3 P:z             3
                        (      43.237 eV)
   203     203       --         9.858 au  O             1.00      4 P:z             3
                        (     268.254 eV)
   204     204       --        72.513 au  O             1.00      5 P:z             3
                        (    1973.187 eV)
   205     205       --       485.875 au  O             1.00      6 P:z             3
                        (   13221.328 eV)
   206     206       --      3534.463 au  O             1.00      7 P:z             3
                        (   96177.635 eV)
   207     207       --         0.501 au  O             1.00      1 D:z2            3
                        (      13.639 eV)
   208     208       --         2.020 au  O             1.00      2 D:z2            3
                        (      54.954 eV)
   209     209       --         8.954 au  O             1.00      3 D:z2            3
                        (     243.653 eV)
   210     210       --        49.942 au  O             1.00      4 D:z2            3
                        (    1358.990 eV)
   211     211       --         0.501 au  O             1.00      1 D:x2-y2         3
                        (      13.639 eV)
   212     212       --         2.020 au  O             1.00      2 D:x2-y2         3
                        (      54.954 eV)
   213     213       --         8.954 au  O             1.00      3 D:x2-y2         3
                        (     243.653 eV)
   214     214       --        49.942 au  O             1.00      4 D:x2-y2         3
                        (    1358.990 eV)
   215     215       --         0.501 au  O             1.00      1 D:xy            3
                        (      13.639 eV)
   216     216       --         2.020 au  O             1.00      2 D:xy            3
                        (      54.954 eV)
   217     217       --         8.954 au  O             1.00      3 D:xy            3
                        (     243.653 eV)
   218     218       --        49.942 au  O             1.00      4 D:xy            3
                        (    1358.990 eV)
   219     219       --         0.501 au  O             1.00      1 D:xz            3
                        (      13.639 eV)
   220     220       --         2.020 au  O             1.00      2 D:xz            3
                        (      54.954 eV)
   221     221       --         8.954 au  O             1.00      3 D:xz            3
                        (     243.653 eV)
   222     222       --        49.942 au  O             1.00      4 D:xz            3
                        (    1358.990 eV)
   223     223       --         0.501 au  O             1.00      1 D:yz            3
                        (      13.639 eV)
   224     224       --         2.020 au  O             1.00      2 D:yz            3
                        (      54.954 eV)
   225     225       --         8.954 au  O             1.00      3 D:yz            3
                        (     243.653 eV)
   226     226       --        49.942 au  O             1.00      4 D:yz            3
                        (    1358.990 eV)
   227     227       --         1.340 au  O             1.00      1 F:z3            3
                        (      36.462 eV)
   228     228       --         6.162 au  O             1.00      2 F:z3            3
                        (     167.664 eV)
   229     229       --        30.899 au  O             1.00      3 F:z3            3
                        (     840.794 eV)
   230     230       --         1.340 au  O             1.00      1 F:z             3
                        (      36.462 eV)
   231     231       --         6.162 au  O             1.00      2 F:z             3
                        (     167.664 eV)
   232     232       --        30.899 au  O             1.00      3 F:z             3
                        (     840.794 eV)
   233     233       --         1.340 au  O             1.00      1 F:xyz           3
                        (      36.462 eV)
   234     234       --         6.162 au  O             1.00      2 F:xyz           3
                        (     167.664 eV)
   235     235       --        30.899 au  O             1.00      3 F:xyz           3
                        (     840.794 eV)
   236     236       --         1.340 au  O             1.00      1 F:z2x           3
                        (      36.462 eV)
   237     237       --         6.162 au  O             1.00      2 F:z2x           3
                        (     167.664 eV)
   238     238       --        30.899 au  O             1.00      3 F:z2x           3
                        (     840.794 eV)
   239     239       --         1.340 au  O             1.00      1 F:z2y           3
                        (      36.462 eV)
   240     240       --         6.162 au  O             1.00      2 F:z2y           3
                        (     167.664 eV)
   241     241       --        30.899 au  O             1.00      3 F:z2y           3
                        (     840.794 eV)
   242     242       --         1.340 au  O             1.00      1 F:x             3
                        (      36.462 eV)
   243     243       --         6.162 au  O             1.00      2 F:x             3
                        (     167.664 eV)
   244     244       --        30.899 au  O             1.00      3 F:x             3
                        (     840.794 eV)
   245     245       --         1.340 au  O             1.00      1 F:y             3
                        (      36.462 eV)
   246     246       --         6.162 au  O             1.00      2 F:y             3
                        (     167.664 eV)
   247     247       --        30.899 au  O             1.00      3 F:y             3
                        (     840.794 eV)
   248     248      2.000     -18.908 au  O             1.00      1 S               4
                        (    -514.500 eV)
   249     249      2.000      -0.891 au  O             1.00      2 S               4
                        (     -24.256 eV)
   250     250       --         0.009 au  O             1.00      3 S               4
                        (       0.253 eV)
   251     251       --         0.476 au  O             1.00      4 S               4
                        (      12.957 eV)
   252     252       --         2.386 au  O             1.00      5 S               4
                        (      64.915 eV)
   253     253       --        10.493 au  O             1.00      6 S               4
                        (     285.533 eV)
   254     254       --        39.695 au  O             1.00      7 S               4
                        (    1080.156 eV)
   255     255       --       149.118 au  O             1.00      8 S               4
                        (    4057.707 eV)
   256     256       --       650.743 au  O             1.00      9 S               4
                        (   17707.606 eV)
   257     257       --      3350.915 au  O             1.00     10 S               4
                        (   91183.024 eV)
   258     258       --     15550.069 au  O             1.00     11 S               4
                        (  423138.902 eV)
   259     259       --     36955.126 au  O             1.00     12 S               4
                        ( 1005600.131 eV)
   260     260       --     59716.576 au  O             1.00     13 S               4
                        ( 1624970.717 eV)
   261     261      1.333      -0.329 au  O             1.00      1 P:x             4
                        (      -8.948 eV)
   262     262       --         0.199 au  O             1.00      2 P:x             4
                        (       5.425 eV)
   263     263       --         1.589 au  O             1.00      3 P:x             4
                        (      43.237 eV)
   264     264       --         9.858 au  O             1.00      4 P:x             4
                        (     268.254 eV)
   265     265       --        72.513 au  O             1.00      5 P:x             4
                        (    1973.187 eV)
   266     266       --       485.875 au  O             1.00      6 P:x             4
                        (   13221.328 eV)
   267     267       --      3534.463 au  O             1.00      7 P:x             4
                        (   96177.635 eV)
   268     268      1.333      -0.329 au  O             1.00      1 P:y             4
                        (      -8.948 eV)
   269     269       --         0.199 au  O             1.00      2 P:y             4
                        (       5.425 eV)
   270     270       --         1.589 au  O             1.00      3 P:y             4
                        (      43.237 eV)
   271     271       --         9.858 au  O             1.00      4 P:y             4
                        (     268.254 eV)
   272     272       --        72.513 au  O             1.00      5 P:y             4
                        (    1973.187 eV)
   273     273       --       485.875 au  O             1.00      6 P:y             4
                        (   13221.328 eV)
   274     274       --      3534.463 au  O             1.00      7 P:y             4
                        (   96177.635 eV)
   275     275      1.333      -0.329 au  O             1.00      1 P:z             4
                        (      -8.948 eV)
   276     276       --         0.199 au  O             1.00      2 P:z             4
                        (       5.425 eV)
   277     277       --         1.589 au  O             1.00      3 P:z             4
                        (      43.237 eV)
   278     278       --         9.858 au  O             1.00      4 P:z             4
                        (     268.254 eV)
   279     279       --        72.513 au  O             1.00      5 P:z             4
                        (    1973.187 eV)
   280     280       --       485.875 au  O             1.00      6 P:z             4
                        (   13221.328 eV)
   281     281       --      3534.463 au  O             1.00      7 P:z             4
                        (   96177.635 eV)
   282     282       --         0.501 au  O             1.00      1 D:z2            4
                        (      13.639 eV)
   283     283       --         2.020 au  O             1.00      2 D:z2            4
                        (      54.954 eV)
   284     284       --         8.954 au  O             1.00      3 D:z2            4
                        (     243.653 eV)
   285     285       --        49.942 au  O             1.00      4 D:z2            4
                        (    1358.990 eV)
   286     286       --         0.501 au  O             1.00      1 D:x2-y2         4
                        (      13.639 eV)
   287     287       --         2.020 au  O             1.00      2 D:x2-y2         4
                        (      54.954 eV)
   288     288       --         8.954 au  O             1.00      3 D:x2-y2         4
                        (     243.653 eV)
   289     289       --        49.942 au  O             1.00      4 D:x2-y2         4
                        (    1358.990 eV)
   290     290       --         0.501 au  O             1.00      1 D:xy            4
                        (      13.639 eV)
   291     291       --         2.020 au  O             1.00      2 D:xy            4
                        (      54.954 eV)
   292     292       --         8.954 au  O             1.00      3 D:xy            4
                        (     243.653 eV)
   293     293       --        49.942 au  O             1.00      4 D:xy            4
                        (    1358.990 eV)
   294     294       --         0.501 au  O             1.00      1 D:xz            4
                        (      13.639 eV)
   295     295       --         2.020 au  O             1.00      2 D:xz            4
                        (      54.954 eV)
   296     296       --         8.954 au  O             1.00      3 D:xz            4
                        (     243.653 eV)
   297     297       --        49.942 au  O             1.00      4 D:xz            4
                        (    1358.990 eV)
   298     298       --         0.501 au  O             1.00      1 D:yz            4
                        (      13.639 eV)
   299     299       --         2.020 au  O             1.00      2 D:yz            4
                        (      54.954 eV)
   300     300       --         8.954 au  O             1.00      3 D:yz            4
                        (     243.653 eV)
   301     301       --        49.942 au  O             1.00      4 D:yz            4
                        (    1358.990 eV)
   302     302       --         1.340 au  O             1.00      1 F:z3            4
                        (      36.462 eV)
   303     303       --         6.162 au  O             1.00      2 F:z3            4
                        (     167.664 eV)
   304     304       --        30.899 au  O             1.00      3 F:z3            4
                        (     840.794 eV)
   305     305       --         1.340 au  O             1.00      1 F:z             4
                        (      36.462 eV)
   306     306       --         6.162 au  O             1.00      2 F:z             4
                        (     167.664 eV)
   307     307       --        30.899 au  O             1.00      3 F:z             4
                        (     840.794 eV)
   308     308       --         1.340 au  O             1.00      1 F:xyz           4
                        (      36.462 eV)
   309     309       --         6.162 au  O             1.00      2 F:xyz           4
                        (     167.664 eV)
   310     310       --        30.899 au  O             1.00      3 F:xyz           4
                        (     840.794 eV)
   311     311       --         1.340 au  O             1.00      1 F:z2x           4
                        (      36.462 eV)
   312     312       --         6.162 au  O             1.00      2 F:z2x           4
                        (     167.664 eV)
   313     313       --        30.899 au  O             1.00      3 F:z2x           4
                        (     840.794 eV)
   314     314       --         1.340 au  O             1.00      1 F:z2y           4
                        (      36.462 eV)
   315     315       --         6.162 au  O             1.00      2 F:z2y           4
                        (     167.664 eV)
   316     316       --        30.899 au  O             1.00      3 F:z2y           4
                        (     840.794 eV)
   317     317       --         1.340 au  O             1.00      1 F:x             4
                        (      36.462 eV)
   318     318       --         6.162 au  O             1.00      2 F:x             4
                        (     167.664 eV)
   319     319       --        30.899 au  O             1.00      3 F:x             4
                        (     840.794 eV)
   320     320       --         1.340 au  O             1.00      1 F:y             4
                        (      36.462 eV)
   321     321       --         6.162 au  O             1.00      2 F:y             4
                        (     167.664 eV)
   322     322       --        30.899 au  O             1.00      3 F:y             4
                        (     840.794 eV)
   323     323      2.000     -18.908 au  O             1.00      1 S               5
                        (    -514.500 eV)
   324     324      2.000      -0.891 au  O             1.00      2 S               5
                        (     -24.256 eV)
   325     325       --         0.009 au  O             1.00      3 S               5
                        (       0.253 eV)
   326     326       --         0.476 au  O             1.00      4 S               5
                        (      12.957 eV)
   327     327       --         2.386 au  O             1.00      5 S               5
                        (      64.915 eV)
   328     328       --        10.493 au  O             1.00      6 S               5
                        (     285.533 eV)
   329     329       --        39.695 au  O             1.00      7 S               5
                        (    1080.156 eV)
   330     330       --       149.118 au  O             1.00      8 S               5
                        (    4057.707 eV)
   331     331       --       650.743 au  O             1.00      9 S               5
                        (   17707.606 eV)
   332     332       --      3350.915 au  O             1.00     10 S               5
                        (   91183.024 eV)
   333     333       --     15550.069 au  O             1.00     11 S               5
                        (  423138.902 eV)
   334     334       --     36955.126 au  O             1.00     12 S               5
                        ( 1005600.131 eV)
   335     335       --     59716.576 au  O             1.00     13 S               5
                        ( 1624970.717 eV)
   336     336      1.333      -0.329 au  O             1.00      1 P:x             5
                        (      -8.948 eV)
   337     337       --         0.199 au  O             1.00      2 P:x             5
                        (       5.425 eV)
   338     338       --         1.589 au  O             1.00      3 P:x             5
                        (      43.237 eV)
   339     339       --         9.858 au  O             1.00      4 P:x             5
                        (     268.254 eV)
   340     340       --        72.513 au  O             1.00      5 P:x             5
                        (    1973.187 eV)
   341     341       --       485.875 au  O             1.00      6 P:x             5
                        (   13221.328 eV)
   342     342       --      3534.463 au  O             1.00      7 P:x             5
                        (   96177.635 eV)
   343     343      1.333      -0.329 au  O             1.00      1 P:y             5
                        (      -8.948 eV)
   344     344       --         0.199 au  O             1.00      2 P:y             5
                        (       5.425 eV)
   345     345       --         1.589 au  O             1.00      3 P:y             5
                        (      43.237 eV)
   346     346       --         9.858 au  O             1.00      4 P:y             5
                        (     268.254 eV)
   347     347       --        72.513 au  O             1.00      5 P:y             5
                        (    1973.187 eV)
   348     348       --       485.875 au  O             1.00      6 P:y             5
                        (   13221.328 eV)
   349     349       --      3534.463 au  O             1.00      7 P:y             5
                        (   96177.635 eV)
   350     350      1.333      -0.329 au  O             1.00      1 P:z             5
                        (      -8.948 eV)
   351     351       --         0.199 au  O             1.00      2 P:z             5
                        (       5.425 eV)
   352     352       --         1.589 au  O             1.00      3 P:z             5
                        (      43.237 eV)
   353     353       --         9.858 au  O             1.00      4 P:z             5
                        (     268.254 eV)
   354     354       --        72.513 au  O             1.00      5 P:z             5
                        (    1973.187 eV)
   355     355       --       485.875 au  O             1.00      6 P:z             5
                        (   13221.328 eV)
   356     356       --      3534.463 au  O             1.00      7 P:z             5
                        (   96177.635 eV)
   357     357       --         0.501 au  O             1.00      1 D:z2            5
                        (      13.639 eV)
   358     358       --         2.020 au  O             1.00      2 D:z2            5
                        (      54.954 eV)
   359     359       --         8.954 au  O             1.00      3 D:z2            5
                        (     243.653 eV)
   360     360       --        49.942 au  O             1.00      4 D:z2            5
                        (    1358.990 eV)
   361     361       --         0.501 au  O             1.00      1 D:x2-y2         5
                        (      13.639 eV)
   362     362       --         2.020 au  O             1.00      2 D:x2-y2         5
                        (      54.954 eV)
   363     363       --         8.954 au  O             1.00      3 D:x2-y2         5
                        (     243.653 eV)
   364     364       --        49.942 au  O             1.00      4 D:x2-y2         5
                        (    1358.990 eV)
   365     365       --         0.501 au  O             1.00      1 D:xy            5
                        (      13.639 eV)
   366     366       --         2.020 au  O             1.00      2 D:xy            5
                        (      54.954 eV)
   367     367       --         8.954 au  O             1.00      3 D:xy            5
                        (     243.653 eV)
   368     368       --        49.942 au  O             1.00      4 D:xy            5
                        (    1358.990 eV)
   369     369       --         0.501 au  O             1.00      1 D:xz            5
                        (      13.639 eV)
   370     370       --         2.020 au  O             1.00      2 D:xz            5
                        (      54.954 eV)
   371     371       --         8.954 au  O             1.00      3 D:xz            5
                        (     243.653 eV)
   372     372       --        49.942 au  O             1.00      4 D:xz            5
                        (    1358.990 eV)
   373     373       --         0.501 au  O             1.00      1 D:yz            5
                        (      13.639 eV)
   374     374       --         2.020 au  O             1.00      2 D:yz            5
                        (      54.954 eV)
   375     375       --         8.954 au  O             1.00      3 D:yz            5
                        (     243.653 eV)
   376     376       --        49.942 au  O             1.00      4 D:yz            5
                        (    1358.990 eV)
   377     377       --         1.340 au  O             1.00      1 F:z3            5
                        (      36.462 eV)
   378     378       --         6.162 au  O             1.00      2 F:z3            5
                        (     167.664 eV)
   379     379       --        30.899 au  O             1.00      3 F:z3            5
                        (     840.794 eV)
   380     380       --         1.340 au  O             1.00      1 F:z             5
                        (      36.462 eV)
   381     381       --         6.162 au  O             1.00      2 F:z             5
                        (     167.664 eV)
   382     382       --        30.899 au  O             1.00      3 F:z             5
                        (     840.794 eV)
   383     383       --         1.340 au  O             1.00      1 F:xyz           5
                        (      36.462 eV)
   384     384       --         6.162 au  O             1.00      2 F:xyz           5
                        (     167.664 eV)
   385     385       --        30.899 au  O             1.00      3 F:xyz           5
                        (     840.794 eV)
   386     386       --         1.340 au  O             1.00      1 F:z2x           5
                        (      36.462 eV)
   387     387       --         6.162 au  O             1.00      2 F:z2x           5
                        (     167.664 eV)
   388     388       --        30.899 au  O             1.00      3 F:z2x           5
                        (     840.794 eV)
   389     389       --         1.340 au  O             1.00      1 F:z2y           5
                        (      36.462 eV)
   390     390       --         6.162 au  O             1.00      2 F:z2y           5
                        (     167.664 eV)
   391     391       --        30.899 au  O             1.00      3 F:z2y           5
                        (     840.794 eV)
   392     392       --         1.340 au  O             1.00      1 F:x             5
                        (      36.462 eV)
   393     393       --         6.162 au  O             1.00      2 F:x             5
                        (     167.664 eV)
   394     394       --        30.899 au  O             1.00      3 F:x             5
                        (     840.794 eV)
   395     395       --         1.340 au  O             1.00      1 F:y             5
                        (      36.462 eV)
   396     396       --         6.162 au  O             1.00      2 F:y             5
                        (     167.664 eV)
   397     397       --        30.899 au  O             1.00      3 F:y             5
                        (     840.794 eV)
   398     398      1.000      -0.238 au  H             1.00      1 S               6
                        (      -6.474 eV)
   399     399       --         0.038 au  H             1.00      2 S               6
                        (       1.044 eV)
   400     400       --         0.454 au  H             1.00      3 S               6
                        (      12.343 eV)
   401     401       --         1.916 au  H             1.00      4 S               6
                        (      52.127 eV)
   402     402       --         8.071 au  H             1.00      5 S               6
                        (     219.613 eV)
   403     403       --        43.538 au  H             1.00      6 S               6
                        (    1184.742 eV)
   404     404       --       377.156 au  H             1.00      7 S               6
                        (   10262.942 eV)
   405     405       --      4872.562 au  H             1.00      8 S               6
                        (  132589.158 eV)
   406     406       --     30001.562 au  H             1.00      9 S               6
                        (  816384.028 eV)
   407     407       --         0.159 au  H             1.00      1 P:x             6
                        (       4.334 eV)
   408     408       --         1.315 au  H             1.00      2 P:x             6
                        (      35.786 eV)
   409     409       --         8.193 au  H             1.00      3 P:x             6
                        (     222.937 eV)
   410     410       --        63.201 au  H             1.00      4 P:x             6
                        (    1719.780 eV)
   411     411       --         0.159 au  H             1.00      1 P:y             6
                        (       4.334 eV)
   412     412       --         1.315 au  H             1.00      2 P:y             6
                        (      35.786 eV)
   413     413       --         8.193 au  H             1.00      3 P:y             6
                        (     222.937 eV)
   414     414       --        63.201 au  H             1.00      4 P:y             6
                        (    1719.780 eV)
   415     415       --         0.159 au  H             1.00      1 P:z             6
                        (       4.334 eV)
   416     416       --         1.315 au  H             1.00      2 P:z             6
                        (      35.786 eV)
   417     417       --         8.193 au  H             1.00      3 P:z             6
                        (     222.937 eV)
   418     418       --        63.201 au  H             1.00      4 P:z             6
                        (    1719.780 eV)
   419     419       --         0.591 au  H             1.00      1 D:z2            6
                        (      16.089 eV)
   420     420       --         2.907 au  H             1.00      2 D:z2            6
                        (      79.092 eV)
   421     421       --        15.536 au  H             1.00      3 D:z2            6
                        (     422.744 eV)
   422     422       --         0.591 au  H             1.00      1 D:x2-y2         6
                        (      16.089 eV)
   423     423       --         2.907 au  H             1.00      2 D:x2-y2         6
                        (      79.092 eV)
   424     424       --        15.536 au  H             1.00      3 D:x2-y2         6
                        (     422.744 eV)
   425     425       --         0.591 au  H             1.00      1 D:xy            6
                        (      16.089 eV)
   426     426       --         2.907 au  H             1.00      2 D:xy            6
                        (      79.092 eV)
   427     427       --        15.536 au  H             1.00      3 D:xy            6
                        (     422.744 eV)
   428     428       --         0.591 au  H             1.00      1 D:xz            6
                        (      16.089 eV)
   429     429       --         2.907 au  H             1.00      2 D:xz            6
                        (      79.092 eV)
   430     430       --        15.536 au  H             1.00      3 D:xz            6
                        (     422.744 eV)
   431     431       --         0.591 au  H             1.00      1 D:yz            6
                        (      16.089 eV)
   432     432       --         2.907 au  H             1.00      2 D:yz            6
                        (      79.092 eV)
   433     433       --        15.536 au  H             1.00      3 D:yz            6
                        (     422.744 eV)
   434     434      1.000      -0.238 au  H             1.00      1 S               7
                        (      -6.474 eV)
   435     435       --         0.038 au  H             1.00      2 S               7
                        (       1.044 eV)
   436     436       --         0.454 au  H             1.00      3 S               7
                        (      12.343 eV)
   437     437       --         1.916 au  H             1.00      4 S               7
                        (      52.127 eV)
   438     438       --         8.071 au  H             1.00      5 S               7
                        (     219.613 eV)
   439     439       --        43.538 au  H             1.00      6 S               7
                        (    1184.742 eV)
   440     440       --       377.156 au  H             1.00      7 S               7
                        (   10262.942 eV)
   441     441       --      4872.562 au  H             1.00      8 S               7
                        (  132589.158 eV)
   442     442       --     30001.562 au  H             1.00      9 S               7
                        (  816384.028 eV)
   443     443       --         0.159 au  H             1.00      1 P:x             7
                        (       4.334 eV)
   444     444       --         1.315 au  H             1.00      2 P:x             7
                        (      35.786 eV)
   445     445       --         8.193 au  H             1.00      3 P:x             7
                        (     222.937 eV)
   446     446       --        63.201 au  H             1.00      4 P:x             7
                        (    1719.780 eV)
   447     447       --         0.159 au  H             1.00      1 P:y             7
                        (       4.334 eV)
   448     448       --         1.315 au  H             1.00      2 P:y             7
                        (      35.786 eV)
   449     449       --         8.193 au  H             1.00      3 P:y             7
                        (     222.937 eV)
   450     450       --        63.201 au  H             1.00      4 P:y             7
                        (    1719.780 eV)
   451     451       --         0.159 au  H             1.00      1 P:z             7
                        (       4.334 eV)
   452     452       --         1.315 au  H             1.00      2 P:z             7
                        (      35.786 eV)
   453     453       --         8.193 au  H             1.00      3 P:z             7
                        (     222.937 eV)
   454     454       --        63.201 au  H             1.00      4 P:z             7
                        (    1719.780 eV)
   455     455       --         0.591 au  H             1.00      1 D:z2            7
                        (      16.089 eV)
   456     456       --         2.907 au  H             1.00      2 D:z2            7
                        (      79.092 eV)
   457     457       --        15.536 au  H             1.00      3 D:z2            7
                        (     422.744 eV)
   458     458       --         0.591 au  H             1.00      1 D:x2-y2         7
                        (      16.089 eV)
   459     459       --         2.907 au  H             1.00      2 D:x2-y2         7
                        (      79.092 eV)
   460     460       --        15.536 au  H             1.00      3 D:x2-y2         7
                        (     422.744 eV)
   461     461       --         0.591 au  H             1.00      1 D:xy            7
                        (      16.089 eV)
   462     462       --         2.907 au  H             1.00      2 D:xy            7
                        (      79.092 eV)
   463     463       --        15.536 au  H             1.00      3 D:xy            7
                        (     422.744 eV)
   464     464       --         0.591 au  H             1.00      1 D:xz            7
                        (      16.089 eV)
   465     465       --         2.907 au  H             1.00      2 D:xz            7
                        (      79.092 eV)
   466     466       --        15.536 au  H             1.00      3 D:xz            7
                        (     422.744 eV)
   467     467       --         0.591 au  H             1.00      1 D:yz            7
                        (      16.089 eV)
   468     468       --         2.907 au  H             1.00      2 D:yz            7
                        (      79.092 eV)
   469     469       --        15.536 au  H             1.00      3 D:yz            7
                        (     422.744 eV)
   470     470      1.000      -0.238 au  H             1.00      1 S               8
                        (      -6.474 eV)
   471     471       --         0.038 au  H             1.00      2 S               8
                        (       1.044 eV)
   472     472       --         0.454 au  H             1.00      3 S               8
                        (      12.343 eV)
   473     473       --         1.916 au  H             1.00      4 S               8
                        (      52.127 eV)
   474     474       --         8.071 au  H             1.00      5 S               8
                        (     219.613 eV)
   475     475       --        43.538 au  H             1.00      6 S               8
                        (    1184.742 eV)
   476     476       --       377.156 au  H             1.00      7 S               8
                        (   10262.942 eV)
   477     477       --      4872.562 au  H             1.00      8 S               8
                        (  132589.158 eV)
   478     478       --     30001.562 au  H             1.00      9 S               8
                        (  816384.028 eV)
   479     479       --         0.159 au  H             1.00      1 P:x             8
                        (       4.334 eV)
   480     480       --         1.315 au  H             1.00      2 P:x             8
                        (      35.786 eV)
   481     481       --         8.193 au  H             1.00      3 P:x             8
                        (     222.937 eV)
   482     482       --        63.201 au  H             1.00      4 P:x             8
                        (    1719.780 eV)
   483     483       --         0.159 au  H             1.00      1 P:y             8
                        (       4.334 eV)
   484     484       --         1.315 au  H             1.00      2 P:y             8
                        (      35.786 eV)
   485     485       --         8.193 au  H             1.00      3 P:y             8
                        (     222.937 eV)
   486     486       --        63.201 au  H             1.00      4 P:y             8
                        (    1719.780 eV)
   487     487       --         0.159 au  H             1.00      1 P:z             8
                        (       4.334 eV)
   488     488       --         1.315 au  H             1.00      2 P:z             8
                        (      35.786 eV)
   489     489       --         8.193 au  H             1.00      3 P:z             8
                        (     222.937 eV)
[...]
 *  --------------------------------                                           *
 *   Amsterdam Modeling Suite (AMS)              2021.105                      *
 *  --------------------------------                                           *
 *                                               r97261 2021-09-16             *
 *                                                                             *
 *                                                                             *
 *                              =================                              *
 *                              |               |                              *
 *                              |     N M R     |                              *
 *                              |               |                              *
 *                              =================                              *
 *                                                                             *
 *                                                                             *
 *   Online information and documentation:  https://www.scm.com/support/       *
 *   E-mail:  support@scm.com   info@scm.com                                   *
 *                                                                             *
 *   Scientific publications using AMS results must be properly referenced     *
 *   See the User Manuals (or the web site) for recommended citations          *
 *   The terms and conditions of the End User License Agreement apply to       *
 *   the use of AMS, https://www.scm.com/license-terms/                        *
 *                                                                             *
 **********************  x86_64_linux_intel / intelmpi  ************************
 
 Licensed to: Dr. Miroslav Ilias / Matej Bel University, Department Chemistry, Fac. Natural Sciences / Banska Bystrica / SLOVAKIA
 SCM User ID: u17848
  
 NMR 2021.105  RunTime: Dec15-2021 09:56:45  ShM Nodes: 1  Procs: 4

 Temporary files are created in /tmp/kid_0.1885831794 (0xEF53)


 Communication costs MPI_COMM_WORLD:      0.275 usec per message,   0.0034 usec per 8-byte item
 Communication costs for intra-node:      0.254 usec per message,   0.0034 usec per 8-byte item

                    
                      **********************************    
                      ||******************************||    
                      ||                              ||    
                      ||  ##   ##  ###  ###  ######   ||    
                      ||  ###  ##  ########  ##   ##  ||    
                      ||  #### ##  ## ## ##  ######   ||    
                      ||  ## ####  ##    ##  ## ##    ||    
                      ||  ##  ###  ##    ##  ##  ##   ||    
                      ||  ##   ##  ##    ##  ##   ##  ||    
                      ||                              ||    
                      | ****************************** |    
                      **********************************    
                    
                            Written for ADF by              
                    
                    Stephen K. Wolff & Georg Schreckenbach  
                    
                      The research group of Tom Ziegler     
                            University of Calgary           
                               Alberta, Canada              
                    
                      Speedups, NBO analysis, g-tensors,    
                       full ZORA SO, and other goodies by   
                         Jochen Autschbach, SUNY Buffalo
                    
 =============================
 NMR Chemical shift References
 =============================
  
 Lead:
 G. Schreckenbach, T. Ziegler, J. Phys. Chem. 99 (1995) 606
  
 Speed-ups:
 J. Autschbach, E. Zurek, J. Phys. Chem. A 107 (2003), 4967
  
 Hybrids:
 M. Krykunov, T. Ziegler, E. van Lenthe, Int. J. of Quantum Chem. 109, 1676 (2009)
  
 Spin-orbit coupling:
 S.K. Wolff, T. Ziegler, E. van Lenthe, E.J. Baerends, J. Chem. Phys. 110, 7689 (1999)
 J. Autschbach, Mol. Phys. 111 (2013), 2544
  
 Paramagnetic:
 J. Autschbach, S. Patchkovskii, B. Pritchard, J. Chem. Theory Comput. 7, 2175 (2011)
  
 NBO analysis:
 J. Autschbach, J. Chem. Phys. 128 (2008), 164112
 J. Autschbach, S. Zheng, Magn. Reson. Chem. 46 (2008), S48
  
 Suggested:
 G. Schreckenbach, T. Ziegler, Int. J. Quantum Chem. 60, 753 (1996)
 G. Schreckenbach, T. Ziegler, Int. J. Quantum Chem. 61 (1997) 899
 S.K. Wolff, T. Ziegler, J. Chem. Phys. 109 (1998) 895
  
 =======================
 ESR g-tensor References
 =======================
  
 Lead:
 J. Autschbach, B. Pritchard, Theor. Chem. Acc. 129 (2011), 453
  
 Suggested:
 G. Schreckenbach, T. Ziegler, J. Phys. Chem. A 101, 3388 (1997)
 
################################################################################
 
 
################################################################################
 
 
              <><><><><><><><><><><><><><><><><><><><><><><><><>
 
                 GENERAL ADF INFORMATION:
                 ------------------------
 
                 TITLE:    *** adf ***                                  
 JOB ID:     1581882106
                 NONLXC:   OPTX PBEc                                    
                 SYMMETRY: NOSYM                                        
                  
                 IOPREL:   3
                 ------>  Scalar ZORA + core pot. (Re MOs)
                 ------>  Core pot used in K, Full pot used in V
 
              <><><><><><><><><><><><><><><><><><><><><><><><><>
 
              ==================================================
 
                 NUCLEAR COORDINATES (ANGSTROMS):
                 --------------------------------
 
                 P  (  1):      -0.0000      0.0000     -0.1557
                 O  (  2):      -1.3803     -0.3505      0.5400
                 O  (  3):       0.9937     -1.0201      0.5400
                 O  (  4):       0.3866      1.3707      0.5400
                 O  (  5):      -0.0000      0.0000     -1.6245
                 H  (  6):      -2.1317      0.0167      0.0534
                 H  (  7):       1.0514     -1.8545      0.0534
                 H  (  8):       1.0803      1.8378      0.0534
 
              ==================================================
 
              <><><><><><><><><><><><><><><><><><><><><><><><><>
 
                 NUMBERS:
                 --------
 
                 number of electrons:     50.00
 
                 ---   AOs   ---          ---   MOs   ---
                 ncor =     0             nocc =    25
                 nval =   583             nvir =   480
                 nbas =   583             nmo  =   505
                 naos =   583             nsot =   505
              ==================================================
                  
                 --------------------------
                     ATOM TYPE: P                        
                 --------------------------
                 === BASIS
                   1S 7500.00     VALENCE
                   1S 1500.00     VALENCE
                   1S  375.00     VALENCE
                   1S  120.00     VALENCE
                   1S   48.70     VALENCE
                   1S   17.80     VALENCE
                   1S   13.35     VALENCE
                   2S   14.00     VALENCE
                   2S    5.95     VALENCE
                   2S    4.25     VALENCE
                   3S    3.30     VALENCE
                   3S    2.75     VALENCE
                   3S    1.80     VALENCE
                   3S    1.25     VALENCE
                   2P  120.00     VALENCE
                   2P   48.70     VALENCE
                   2P   17.80     VALENCE
                   2P   10.25     VALENCE
                   2P    5.90     VALENCE
                   2P    3.80     VALENCE
                   3P    3.25     VALENCE
                   3P    2.25     VALENCE
                   3P    1.35     VALENCE
                   3P    0.85     VALENCE
                   3D   20.00     VALENCE
                   3D    8.00     VALENCE
                   3D    4.00     VALENCE
                   3D    2.00     VALENCE
                   3D    1.00     VALENCE
                   4F   12.50     VALENCE
                   4F    5.00     VALENCE
                   4F    2.50     VALENCE
                   4F    1.25     VALENCE
                  
                 --------------------------
                     ATOM TYPE: O                        
                 --------------------------
                 === BASIS
                   1S 4000.00     VALENCE
                   1S  800.00     VALENCE
                   1S  200.00     VALENCE
                   1S   80.00     VALENCE
                   1S   32.00     VALENCE
                   1S   14.80     VALENCE
                   1S    8.75     VALENCE
                   1S    6.65     VALENCE
                   2S    7.10     VALENCE
                   2S    3.20     VALENCE
                   2S    2.05     VALENCE
                   2S    1.50     VALENCE
                   2S    0.75     VALENCE
                   2P   80.00     VALENCE
                   2P   32.00     VALENCE
                   2P   14.80     VALENCE
                   2P    5.70     VALENCE
                   2P    3.05     VALENCE
                   2P    1.65     VALENCE
                   2P    1.00     VALENCE
                   3D   10.00     VALENCE
                   3D    5.00     VALENCE
                   3D    2.50     VALENCE
                   3D    1.50     VALENCE
                   4F    8.00     VALENCE
                   4F    4.00     VALENCE
                   4F    2.00     VALENCE
                  
                 --------------------------
                     ATOM TYPE: H                        
                 --------------------------
                 === BASIS
                   1S  500.00     VALENCE
                   1S  100.00     VALENCE
                   1S   25.00     VALENCE
                   1S    7.50     VALENCE
                   1S    3.30     VALENCE
                   1S    2.00     VALENCE
                   1S    1.40     VALENCE
                   1S    1.00     VALENCE
                   1S    0.71     VALENCE
                   2P   10.00     VALENCE
                   2P    4.00     VALENCE
                   2P    2.00     VALENCE
                   2P    1.00     VALENCE
                   3D    5.00     VALENCE
                   3D    2.50     VALENCE
                   3D    1.50     VALENCE
                  
              ==================================================
              <><><><><><><><><><><><><><><><><><><><><><><><><>
 
                 TENSOR INFORMATION:
                 -------------------
 
                              CALC                   U1K
 
                 paramagnetic  = T     mass-velocity = F
                 diamagnetic   = T     Darwin        = F
                 Fermi-cont.   = F     Zeeman        = F
                 ZORA SO       = F     ZORA SO       = F
                 ZORA SCALE    = F     ZORA SO FULL  = F
                 ZORA SO 1C    = F     E IN U1 SCL   = F
 
              <><><><><><><><><><><><><><><><><><><><><><><><><>
 
              <><><><><><><><><><><><><><><><><><><><><><><><><>
 
                 OUTPUT SWITCHES:
                 ----------------
 
                           ISO = T                F1 = F
                          TENS = T                S1 = F
                           EIG = F                U1 = F
                           AOP = F                B1 = F
                           AOD = F                F  = F
                           AOF = F                 S = F
                          INFO = F              REFS = F
 
              <><><><><><><><><><><><><><><><><><><><><><><><><>
 
              --------------------------------------------------
 
                 CALCULATE THE POTENTIAL? F
                  
                 ---> Potential is already on TAPE10.
                      It will not be re-calculated.
 
              --------------------------------------------------



 ===========================
 L I N E A R   S C A L I N G
 ===========================
  

 Overlap cut-off criterion AO matrix elements:     0.1000000000E-07
################################################################################
********************************************************************************
****  N U C L E U S : P(1)
 
 ADF-GUI atom: P(1)
 Internal NMR numbering of atoms: P(1)
 
 
================================================================================
 
 
===  PARAMAGNETIC NMR SHIELDING TENSORS (ppm)
 
    ===     paramagnetic b^(1) tensor       ===     paramagnetic u^(1) tensor
    -----------------------------------     -----------------------------------
           0.000     0.000     0.000            -649.108    -0.667     0.249
           0.000     0.000     0.000              -0.667  -648.691    -0.014
           0.000     0.000     0.000               0.249    -0.014  -502.256
    -----------------------------------     -----------------------------------
              isotropic =      0.000                  isotropic =   -600.019

    ===     paramagnetic s^(1) tensor       ===     paramagnetic gauge tensor
    -----------------------------------     -----------------------------------
         -55.351     0.508    -0.210              -5.281     0.002     0.001
           0.508   -55.727    -0.049               0.002    -5.286    -0.006
          -0.210    -0.049    -6.069               0.001    -0.006    -2.667
    -----------------------------------     -----------------------------------
              isotropic =    -39.049                  isotropic =     -4.411

                        ***********************************
                        CARTESIAN AXIS REPRESENTATION

                        ==== total paramagnetic tensor
                        -----------------------------------
                            -709.740    -0.156     0.041
                              -0.156  -709.704    -0.069
                               0.041    -0.069  -510.993
                        -----------------------------------
                                  isotropic =   -643.479

                        ***********************************
                        -----------------------------------
                        PRINCIPAL AXIS REPRESENTATION

                        ==== Principal components:

                            -709.880  -709.565  -510.993
 
                        ==== Principal Axis System:

                               0.747     0.665     0.000
                               0.665    -0.747    -0.000
                               0.000    -0.000     1.000
                        -----------------------------------
 
================================================================================
 
 
===  DIAMAGNETIC NMR SHIELDING TENSORS (ppm)
 
    ===       diamagnetic core tensor       ===    diamagnetic valence tensor
    -----------------------------------     -----------------------------------
           0.000     0.000     0.000             953.098     0.122    -0.019
           0.000     0.000     0.000               0.122   953.060     0.036
           0.000     0.000     0.000              -0.019     0.036   943.271
    -----------------------------------     -----------------------------------
              isotropic =      0.000                  isotropic =    949.810

                        ***********************************
                        CARTESIAN AXIS REPRESENTATION

                        ==== total diamagnetic tensor
                        -----------------------------------
                             953.098     0.122    -0.019
                               0.122   953.060     0.036
                              -0.019     0.036   943.271
                        -----------------------------------
                                  isotropic =    949.810

                        ***********************************
                        -----------------------------------
                        PRINCIPAL AXIS REPRESENTATION

                        ==== Principal components:

                             943.271   952.956   953.202
 
                        ==== Principal Axis System:

                               0.002     0.650     0.760
                              -0.004    -0.760     0.650
                               1.000    -0.004     0.001
                        -----------------------------------
 
================================================================================
 
 
===  TOTAL NMR SHIELDING TENSOR (ppm)
 
                        ***********************************
                        CARTESIAN AXIS REPRESENTATION

                        ==== total shielding tensor
                        -----------------------------------
                             243.358    -0.035     0.022
                              -0.035   243.356    -0.033
                               0.022    -0.033   432.278
                        -----------------------------------
                                  isotropic =    306.331

                        ***********************************
                        -----------------------------------
                        PRINCIPAL AXIS REPRESENTATION

                        ==== Principal components:

                             243.322   243.392   432.278
 
                        ==== Principal Axis System:

                               0.697     0.718     0.000
                               0.718    -0.697    -0.000
                               0.000    -0.000     1.000
                        -----------------------------------
 *******************************************************************************

                             N M R   E X I T
 NORMAL TERMINATION



 =================
 Timing Statistics
 =================
  
 Total Used :                     CPU=       55.17      System=        0.22     Elapsed=       56.83

 Calls  Section                     ( Mean, Percentage )
 ---------------------------------------------------------------------------------------------------
     3  ><      ................      0.00    0.02             0.00    2.40             0.00    0.02
     1  INIT    ................      0.40    0.72             0.00    2.20             0.43    0.76
     1  ZAOF1K  ................     22.70   41.15             0.04   16.60            24.11   42.42
     1  ZU1K    ................      0.02    0.03             0.00    1.79             0.02    0.04
     1  ZSGP    ................     11.84   21.47             0.01    2.90            11.86   20.86
     1  ZAODKK  ................     20.16   36.54             0.17   74.09            20.35   35.81
     1  ZDV     ................      0.04    0.07             0.00    0.00             0.04    0.07
     1  ZSGD    ................      0.00    0.00             0.00    0.00             0.00    0.00
     1  ZSG     ................      0.00    0.00             0.00    0.00             0.00    0.01
     1  EXIT PROCEDURE .........      0.00    0.00             0.00    0.00             0.00    0.00


 Currently Open Files (EXIT00)
 ====================

 Unit    Access Format  Status   Type       Ident (file)
 -------------------------------------------------------
   3      SEQ    FORM   TRANSP  NORMAL      LOGFILE
                                          ( /home/milias/work/projects/open-collection/theoretical_chemistry/projects/nmr_diplomovky/reference_compounds/phosphoric_acid/ams/pbe0_tz2p_good/cosmo-chcl3/srzora/nmr_opbe_qz4p-j_good-cosmo-chcl3-geometry_pbe0-tzp-cosmo_chcl3/phosphoric_acid.srzora_nmrshi )
