

 Parallel Execution: Process Information
 ==============================================================================
 Rank   Node Name                              NodeID   MyNodeRank  NodeMaster
    0   ubuntu-kch                                0          0          0
    1   ubuntu-kch                                0          1         -1
    2   ubuntu-kch                                0          2         -1
    3   ubuntu-kch                                0          3         -1
 ==============================================================================


May use up to 7570MB of RAM as shared memory on node 0

 *******************************************************************************
 *                                                                             *
 *  --------------------------------                                           *
 *   Amsterdam Modeling Suite (AMS)              2021.105                      *
 *  --------------------------------                                           *
 *                                               r97261 2021-09-16             *
 *                                                                             *
 *                                                                             *
 *                              =================                              *
 *                              |               |                              *
 *                              |     A M S     |                              *
 *                              |               |                              *
 *                              =================                              *
 *                                                                             *
 *                                                                             *
 *   Online information and documentation:  https://www.scm.com/support/       *
 *   E-mail:  support@scm.com   info@scm.com                                   *
 *                                                                             *
 *   Scientific publications using AMS results must be properly referenced     *
 *   See the User Manuals (or the web site) for recommended citations          *
 *   The terms and conditions of the End User License Agreement apply to       *
 *   the use of AMS, https://www.scm.com/license-terms/                        *
 *                                                                             *
 **********************  x86_64_linux_intel / intelmpi  ************************
 
 Licensed to: Dr. Miroslav Ilias / Matej Bel University, Department Chemistry, Fac. Natural Sciences / Banska Bystrica / SLOVAKIA
 SCM User ID: u17848
  
 AMS 2021.105  RunTime: Dec15-2021 09:57:43  ShM Nodes: 1  Procs: 4

 AMS jobname: ams
 AMS jobid  : 905052883

 Start   directory: /home/milias/work/projects/open-collection/theoretical_chemistry/projects/nmr_diplomovky/derivaty_markerov/derivative_7_Ivan/ams/nonrel/nmr_opbe_qz4p-j_good_cosmo-chcl3/tmp.milias.647302.0.noindex/
 Results directory: /home/milias/work/projects/open-collection/theoretical_chemistry/projects/nmr_diplomovky/derivaty_markerov/derivative_7_Ivan/ams/nonrel/nmr_opbe_qz4p-j_good_cosmo-chcl3/der7.nonrel_nmr_opbe_qz4p-j_good_cosmo-chcl3.results/
 Scratch directory: /tmp/amstmp_ams_kid0.905052883/


 Communication costs MPI_COMM_WORLD:      0.258 usec per message,   0.0035 usec per 8-byte item
 Communication costs for intra-node:      0.258 usec per message,   0.0034 usec per 8-byte item

 RNG seed: -1549803056 -556449194 -652479651 801063239 2060383820 -1672653876 1391881914 1065468087



                      ************************************************************************
                      *  ADF 2021.105  RunTime: Dec15-2021 09:57:44  ShM Nodes: 1  Procs: 4  *
                      ************************************************************************
  
       ****************************
       * SINGLE POINT CALCULATION *
       ****************************
 
--------
Geometry
--------
Formula: C12H25O3P
Atoms
  Index Symbol   x (angstrom)   y (angstrom)   z (angstrom)
      1      O     3.38145292    -0.49095325     0.04089403       adf.R=1.517
      2      P     2.30640681     0.20397800    -0.97070714       adf.R=1.850
      3      O     1.51868007     1.29811008    -0.03607700       adf.R=1.517
      4      O     1.09458914    -0.90554301    -0.86308312       adf.R=1.517
      5      C     0.40672620     0.72331877     0.70513498       adf.R=1.700
      6      C    -0.11432544    -0.38025039    -0.25858657       adf.R=1.700
      7      C     0.93134079     0.17311343     2.02292073       adf.R=1.700
      8      C    -0.58656289     1.83821372     0.96143913       adf.R=1.700
      9      C    -0.98644649     0.16961402    -1.37781754       adf.R=1.700
     10      C    -0.81540980    -1.52776889     0.43991689       adf.R=1.700
     11      H     0.10772480    -0.15822171     2.65777555       adf.R=1.350
     12      H     1.61840819    -0.65813621     1.86774358       adf.R=1.350
     13      H     1.46644487     0.96738957     2.54589659       adf.R=1.350
     14      H    -0.85482891     2.35614694     0.04167224       adf.R=1.350
     15      H    -1.49514720     1.43801685     1.41710388       adf.R=1.350
     16      H    -0.15393212     2.56287642     1.65311207       adf.R=1.350
     17      H    -1.96081238     0.48541673    -1.00194289       adf.R=1.350
     18      H    -0.51190501     1.01827390    -1.87384065       adf.R=1.350
     19      H    -1.14408706    -0.61666194    -2.11755943       adf.R=1.350
     20      H    -1.69195048    -1.16298641     0.98026029       adf.R=1.350
     21      H    -1.15415585    -2.25522919    -0.29948956       adf.R=1.350
     22      H    -0.15399740    -2.03181211     1.14294713       adf.R=1.350
     23      C     4.76895005    -0.53277628    -0.35630982       adf.R=1.700
     24      C     5.61501638     0.26337952     0.65731433       adf.R=1.700
     25      H     4.49544543    -2.44374078    -1.28469353       adf.R=1.350
     26      H     5.02098162    -2.54365327     0.39873732       adf.R=1.350
     27      C     5.48199050    -0.31063402     2.06647062       adf.R=1.700
     28      C     5.14117211     1.71696598     0.65781186       adf.R=1.700
     29      H     6.17556564    -2.09448643    -0.87039642       adf.R=1.350
     30      C     5.14373437    -1.98950866    -0.53344450       adf.R=1.700
     31      H     4.86354790    -0.02372603    -1.32524002       adf.R=1.350
     32      C     7.08019692     0.22892137     0.22061978       adf.R=1.700
     33      H     5.76007363     2.31438133     1.33201764       adf.R=1.350
     34      H     4.10403331     1.79855499     0.98761170       adf.R=1.350
     35      H     5.21640323     2.15534735    -0.34222865       adf.R=1.350
     36      H     5.87051338    -1.32975548     2.12865538       adf.R=1.350
     37      H     4.43810285    -0.32033139     2.38641071       adf.R=1.350
     38      H     6.04832189     0.30214291     2.77274168       adf.R=1.350
     39      H     7.67175348     0.89185851     0.85682200       adf.R=1.350
     40      H     7.19546286     0.56956297    -0.81274177       adf.R=1.350
     41      H     7.50805872    -0.77233597     0.29961707       adf.R=1.350
 
Total System Charge             0.00000
Bonding info available!
 
 
----------------
ADF Engine Input
----------------
 
 Basis
 Type QZ4P-J
 Core None
 End
 Save TAPE10
 XC
 GGA OPBE
 End
 Relativity
 Level None
 End
 Symmetry NOSYM
 Solvation
 Surf Delley
 Solv name=Chloroform cav0=0.0 cav1=0.0067639
 Charged method=CONJ
 C-Mat POT
 SCF VAR ALL
 CSMRSP
 End
 NumericalQuality Good
 

 Title: *** (NO TITLE) ***

 *** adf ***



 ===========================
 A T T A C H E D   F I L E S
 ===========================
  



 ===============================
 M O D E L   P A R A M E T E R S
 ===============================
  
 DENSITY FUNCTIONAL POTENTIAL (scf)
    LDA:                               VWN                                      
    Gradient Corrections:              OPTX PBEc                               == Not Default ==

 SPIN  (restricted / unrestr.)
    Molecule:                          Restricted                               
    Fragments:                         Restricted                               

 OTHER ASPECTS
    Relativistic Corrections:          ---                                     == Not Default ==

    Nuclear Charge Density Model:      Point Charge Nuclei                      
    Core Treatment:                    Frozen Orbital(s)                        

    Hyperfine or Zeeman Interaction:   ---                                      

 SOLVATION
-------------------------------------------

  The Delley construction of COSMO surface surface is calculated

       Division Level for Surface Triangles (NDIV)                  3
       Final Division Level for Triangles (NFDIV)                   1
       Radius of the Solvent (RSOL)                           3.17000 angstr
  Dielectric Constant (EPSL)                                  4.80000

       COSMO equation is solved iteratively-               conjugate-gradient

       Maximun of Iterations for Charges (NCIX)                  1000
       Criterion for Charge convergence (CCNV)                1.0E-08

  COSMO charges included variationally in SCF

       COSMO included at every SCF cycle

  Geometry-dependent empirical factor                         0.00000

  C-Matrix calculated in cspmtx

  In cspmtx, C-Matrix calculated using fitted potential

-------------------------------------------



 Fragment File(s)
 ----------------
 O:
         file : /home/milias/work/projects/open-collection/theoretical_chemistry/projects/nmr_diplomovky/derivaty_markerov/derivative_7_Ivan/ams/nonrel/nmr_opbe_qz4p-j_good_cosmo-chcl3/der7.nonrel_nmr_opbe_qz4p-j_good_cosmo-chcl3.results/t21.2CFDEB66.O
         jobid: 0
         title: Oxygen (QZ4P-J)
 P:
         file : /home/milias/work/projects/open-collection/theoretical_chemistry/projects/nmr_diplomovky/derivaty_markerov/derivative_7_Ivan/ams/nonrel/nmr_opbe_qz4p-j_good_cosmo-chcl3/der7.nonrel_nmr_opbe_qz4p-j_good_cosmo-chcl3.results/t21.74896B66.P
         jobid: 0
         title: Phosphorus (QZ4P-J)
 C:
         file : /home/milias/work/projects/open-collection/theoretical_chemistry/projects/nmr_diplomovky/derivaty_markerov/derivative_7_Ivan/ams/nonrel/nmr_opbe_qz4p-j_good_cosmo-chcl3/der7.nonrel_nmr_opbe_qz4p-j_good_cosmo-chcl3.results/t21.59EC5843.C
         jobid: 0
         title: Carbon (QZ4P-J)
 H:
         file : /home/milias/work/projects/open-collection/theoretical_chemistry/projects/nmr_diplomovky/derivaty_markerov/derivative_7_Ivan/ams/nonrel/nmr_opbe_qz4p-j_good_cosmo-chcl3/der7.nonrel_nmr_opbe_qz4p-j_good_cosmo-chcl3.results/t21.5804187F.H
         jobid: 0
         title: Hydrogen (QZ4P-J)



 ===============
 G E O M E T R Y  ***  3D  Molecule  ***
 ===============
  

 ATOMS
 =====                            X Y Z                    CHARGE                     RADIUS
                                (Angstrom)             Nucl     +Core       At.Mass (Angstrom)
                       --------------------------    ----------------       ------- ----------
    1  O               3.3815   -0.4910    0.0409      8.00      8.00       15.9949    1.5170
    2  P               2.3064    0.2040   -0.9707     15.00     15.00       30.9738    1.8500
    3  O               1.5187    1.2981   -0.0361      8.00      8.00       15.9949    1.5170
    4  O               1.0946   -0.9055   -0.8631      8.00      8.00       15.9949    1.5170
    5  C               0.4067    0.7233    0.7051      6.00      6.00       12.0000    1.7000
    6  C              -0.1143   -0.3803   -0.2586      6.00      6.00       12.0000    1.7000
    7  C               0.9313    0.1731    2.0229      6.00      6.00       12.0000    1.7000
    8  C              -0.5866    1.8382    0.9614      6.00      6.00       12.0000    1.7000
    9  C              -0.9864    0.1696   -1.3778      6.00      6.00       12.0000    1.7000
   10  C              -0.8154   -1.5278    0.4399      6.00      6.00       12.0000    1.7000
   11  H               0.1077   -0.1582    2.6578      1.00      1.00        1.0078    1.3500
   12  H               1.6184   -0.6581    1.8677      1.00      1.00        1.0078    1.3500
   13  H               1.4664    0.9674    2.5459      1.00      1.00        1.0078    1.3500
   14  H              -0.8548    2.3561    0.0417      1.00      1.00        1.0078    1.3500
   15  H              -1.4951    1.4380    1.4171      1.00      1.00        1.0078    1.3500
   16  H              -0.1539    2.5629    1.6531      1.00      1.00        1.0078    1.3500
   17  H              -1.9608    0.4854   -1.0019      1.00      1.00        1.0078    1.3500
   18  H              -0.5119    1.0183   -1.8738      1.00      1.00        1.0078    1.3500
   19  H              -1.1441   -0.6167   -2.1176      1.00      1.00        1.0078    1.3500
   20  H              -1.6920   -1.1630    0.9803      1.00      1.00        1.0078    1.3500
   21  H              -1.1542   -2.2552   -0.2995      1.00      1.00        1.0078    1.3500
   22  H              -0.1540   -2.0318    1.1429      1.00      1.00        1.0078    1.3500
   23  C               4.7690   -0.5328   -0.3563      6.00      6.00       12.0000    1.7000
   24  C               5.6150    0.2634    0.6573      6.00      6.00       12.0000    1.7000
   25  H               4.4954   -2.4437   -1.2847      1.00      1.00        1.0078    1.3500
   26  H               5.0210   -2.5437    0.3987      1.00      1.00        1.0078    1.3500
   27  C               5.4820   -0.3106    2.0665      6.00      6.00       12.0000    1.7000
   28  C               5.1412    1.7170    0.6578      6.00      6.00       12.0000    1.7000
   29  H               6.1756   -2.0945   -0.8704      1.00      1.00        1.0078    1.3500
   30  C               5.1437   -1.9895   -0.5334      6.00      6.00       12.0000    1.7000
   31  H               4.8635   -0.0237   -1.3252      1.00      1.00        1.0078    1.3500
   32  C               7.0802    0.2289    0.2206      6.00      6.00       12.0000    1.7000
   33  H               5.7601    2.3144    1.3320      1.00      1.00        1.0078    1.3500
   34  H               4.1040    1.7986    0.9876      1.00      1.00        1.0078    1.3500
   35  H               5.2164    2.1553   -0.3422      1.00      1.00        1.0078    1.3500
   36  H               5.8705   -1.3298    2.1287      1.00      1.00        1.0078    1.3500
   37  H               4.4381   -0.3203    2.3864      1.00      1.00        1.0078    1.3500
   38  H               6.0483    0.3021    2.7727      1.00      1.00        1.0078    1.3500
   39  H               7.6718    0.8919    0.8568      1.00      1.00        1.0078    1.3500
   40  H               7.1955    0.5696   -0.8127      1.00      1.00        1.0078    1.3500
   41  H               7.5081   -0.7723    0.2996      1.00      1.00        1.0078    1.3500


 FRAGMENTS
 =========                                     Atoms in this Fragment     Cart. coord.s (Angstrom)
                                               -------------------------------------------------------
    1  O                                                 1  O            3.3815   -0.4910    0.0409
    2  O                                                 3  O            1.5187    1.2981   -0.0361
    3  O                                                 4  O            1.0946   -0.9055   -0.8631
    4  P                                                 2  P            2.3064    0.2040   -0.9707
    5  C                                                 5  C            0.4067    0.7233    0.7051
    6  C                                                 6  C           -0.1143   -0.3803   -0.2586
    7  C                                                 7  C            0.9313    0.1731    2.0229
    8  C                                                 8  C           -0.5866    1.8382    0.9614
    9  C                                                 9  C           -0.9864    0.1696   -1.3778
   10  C                                                10  C           -0.8154   -1.5278    0.4399
   11  C                                                23  C            4.7690   -0.5328   -0.3563
   12  C                                                24  C            5.6150    0.2634    0.6573
   13  C                                                27  C            5.4820   -0.3106    2.0665
   14  C                                                28  C            5.1412    1.7170    0.6578
   15  C                                                30  C            5.1437   -1.9895   -0.5334
   16  C                                                32  C            7.0802    0.2289    0.2206
   17  H                                                11  H            0.1077   -0.1582    2.6578
   18  H                                                12  H            1.6184   -0.6581    1.8677
   19  H                                                13  H            1.4664    0.9674    2.5459
   20  H                                                14  H           -0.8548    2.3561    0.0417
   21  H                                                15  H           -1.4951    1.4380    1.4171
   22  H                                                16  H           -0.1539    2.5629    1.6531
   23  H                                                17  H           -1.9608    0.4854   -1.0019
   24  H                                                18  H           -0.5119    1.0183   -1.8738
   25  H                                                19  H           -1.1441   -0.6167   -2.1176
   26  H                                                20  H           -1.6920   -1.1630    0.9803
   27  H                                                21  H           -1.1542   -2.2552   -0.2995
   28  H                                                22  H           -0.1540   -2.0318    1.1429
   29  H                                                25  H            4.4954   -2.4437   -1.2847
   30  H                                                26  H            5.0210   -2.5437    0.3987
   31  H                                                29  H            6.1756   -2.0945   -0.8704
   32  H                                                31  H            4.8635   -0.0237   -1.3252
   33  H                                                33  H            5.7601    2.3144    1.3320
   34  H                                                34  H            4.1040    1.7986    0.9876
   35  H                                                35  H            5.2164    2.1553   -0.3422
   36  H                                                36  H            5.8705   -1.3298    2.1287
   37  H                                                37  H            4.4381   -0.3203    2.3864
   38  H                                                38  H            6.0483    0.3021    2.7727
   39  H                                                39  H            7.6718    0.8919    0.8568
   40  H                                                40  H            7.1955    0.5696   -0.8127
   41  H                                                41  H            7.5081   -0.7723    0.2996



 =====================================
 S Y M M E T R Y ,   E L E C T R O N S
 =====================================
  
 Symmetry: NOSYM

 Irreducible Representations, including subspecies
 -------------------------------------------------
 A


 Configuration of Valence Electrons
 ==================================
 ( determined in the SCF procedure )

 Total:   136

 Net Charge: 0 (Nuclei minus Electrons)

 Aufbau principle for MO occupations will be applied through SCF cycle no.     150
 Thereafter, the program will assign electrons to MOs that are spatially
 similar to the occupied MOs in a "reference" cycle ("KeepOrbitals").
 The reference cycle is always the PREVIOUS cycle: it will evolve with
 the SCF procedure.
1
 ***************************************************************************************************



                                      ****************************************
                                      *  B U I L D : (Fragments, Functions)  *
                                      ****************************************
  

 Total nr. of (C)SFOs (summation over all irreps) :  2110

 Specify PRINT SFO in the input file to get a full list

 Nr. of SFOs for ir.rep.           A :  2110



 ================================
 (Slater-type)  F U N C T I O N S  ***  (Basis and Fit)  ***
 ================================
  

 Atom Type    1  (O)
 ==============

 Valence Basis Sets:  27
 -----------------------
   1 S 4000.000000
   1 S  800.000000
   1 S  200.000000
   1 S   80.000000
   1 S   32.000000
   1 S   14.800000
   1 S    8.750000
   1 S    6.650000
   2 S    7.100000
   2 S    3.200000
   2 S    2.050000
   2 S    1.500000
   2 S    0.750000
   2 P   80.000000
   2 P   32.000000
   2 P   14.800000
   2 P    5.700000
   2 P    3.050000
   2 P    1.650000
   2 P    1.000000
   3 D   10.000000
   3 D    5.000000
   3 D    2.500000
   3 D    1.500000
   4 F    8.000000
   4 F    4.000000
   4 F    2.000000

 Atom Type    2  (P)
 ==============

 Valence Basis Sets:  33
 -----------------------
   1 S 7500.000000
   1 S 1500.000000
   1 S  375.000000
   1 S  120.000000
   1 S   48.700000
   1 S   17.800000
   1 S   13.350000
   2 S   14.000000
   2 S    5.950000
   2 S    4.250000
   3 S    3.300000
   3 S    2.750000
   3 S    1.800000
   3 S    1.250000
   2 P  120.000000
   2 P   48.700000
   2 P   17.800000
   2 P   10.250000
   2 P    5.900000
   2 P    3.800000
   3 P    3.250000
   3 P    2.250000
   3 P    1.350000
   3 P    0.850000
   3 D   20.000000
   3 D    8.000000
   3 D    4.000000
   3 D    2.000000
   3 D    1.000000
   4 F   12.500000
   4 F    5.000000
   4 F    2.500000
   4 F    1.250000

 Atom Type    3  (C)
 ==============

 Valence Basis Sets:  26
 -----------------------
   1 S 3000.000000
   1 S  600.000000
   1 S  150.000000
   1 S   60.000000
   1 S   24.000000
   1 S   11.400000
   1 S    6.600000
   1 S    4.850000
   2 S    5.900000
   2 S    2.550000
   2 S    1.650000
   2 S    1.160000
   2 P   60.000000
   2 P   24.000000
   2 P   11.400000
   2 P    5.150000
   2 P    2.400000
   2 P    1.300000
   2 P    0.780000
   3 D   10.000000
   3 D    5.000000
   3 D    2.500000
   3 D    1.500000
   4 F    8.000000
   4 F    4.000000
   4 F    2.000000

 Atom Type    4  (H)
 ==============

 Valence Basis Sets:  16
 -----------------------
   1 S  500.000000
   1 S  100.000000
   1 S   25.000000
   1 S    7.500000
   1 S    3.300000
   1 S    2.000000
   1 S    1.400000
   1 S    1.000000
   1 S    0.710000
   2 P   10.000000
   2 P    4.000000
   2 P    2.000000
   2 P    1.000000
   3 D    5.000000
   3 D    2.500000
   3 D    1.500000


 BAS: List of all Elementary Cartesian Basis Functions
 =====================================================

 The numbering in the list below (to the right of the function characteristics) is referred
 to in print-outs of MO eigenvectors and Mulliken populations in the BAS representation
 (as contrasted to the SFO representation).

 Notes:
 1. The functions are characterized by a polynomial prefactor (powers of x,y,z and r) and
    an exponential decay factor alpha.
 2. Since the basis sets are specific for an atom TYPE, the individual functions occur on
    all atoms of that type.
 3. The word 'Core' in the left margin signals that it is a Core Function (CF) : not a
    degree of freedom in the valence set, but only used to ensure orthogonalization of
    the other valence basis functions on the frozen Core Orbitals.


 (power of) X  Y  Z  R     Alpha  on Atom
            ==========     =====     ==========

 O                                    1    2    3
                                  ---------------------------------------------------------------------------
            0  0  0  0  4000.000      1   89  177
            0  0  0  0   800.000      2   90  178
            0  0  0  0   200.000      3   91  179
            0  0  0  0    80.000      4   92  180
            0  0  0  0    32.000      5   93  181
            0  0  0  0    14.800      6   94  182
            0  0  0  0     8.750      7   95  183
            0  0  0  0     6.650      8   96  184
            0  0  0  1     7.100      9   97  185
            0  0  0  1     3.200     10   98  186
            0  0  0  1     2.050     11   99  187
            0  0  0  1     1.500     12  100  188
            0  0  0  1     0.750     13  101  189
            1  0  0  0    80.000     14  102  190
            0  1  0  0    80.000     15  103  191
            0  0  1  0    80.000     16  104  192
            1  0  0  0    32.000     17  105  193
            0  1  0  0    32.000     18  106  194
            0  0  1  0    32.000     19  107  195
            1  0  0  0    14.800     20  108  196
            0  1  0  0    14.800     21  109  197
            0  0  1  0    14.800     22  110  198
            1  0  0  0     5.700     23  111  199
            0  1  0  0     5.700     24  112  200
            0  0  1  0     5.700     25  113  201
            1  0  0  0     3.050     26  114  202
            0  1  0  0     3.050     27  115  203
            0  0  1  0     3.050     28  116  204
            1  0  0  0     1.650     29  117  205
            0  1  0  0     1.650     30  118  206
            0  0  1  0     1.650     31  119  207
            1  0  0  0     1.000     32  120  208
            0  1  0  0     1.000     33  121  209
            0  0  1  0     1.000     34  122  210
            2  0  0  0    10.000     35  123  211
            1  1  0  0    10.000     36  124  212
            1  0  1  0    10.000     37  125  213
            0  2  0  0    10.000     38  126  214
            0  1  1  0    10.000     39  127  215
            0  0  2  0    10.000     40  128  216
            2  0  0  0     5.000     41  129  217
            1  1  0  0     5.000     42  130  218
            1  0  1  0     5.000     43  131  219
            0  2  0  0     5.000     44  132  220
            0  1  1  0     5.000     45  133  221
            0  0  2  0     5.000     46  134  222
            2  0  0  0     2.500     47  135  223
            1  1  0  0     2.500     48  136  224
            1  0  1  0     2.500     49  137  225
            0  2  0  0     2.500     50  138  226
            0  1  1  0     2.500     51  139  227
            0  0  2  0     2.500     52  140  228
            2  0  0  0     1.500     53  141  229
            1  1  0  0     1.500     54  142  230
            1  0  1  0     1.500     55  143  231
            0  2  0  0     1.500     56  144  232
            0  1  1  0     1.500     57  145  233
            0  0  2  0     1.500     58  146  234
            3  0  0  0     8.000     59  147  235
            2  1  0  0     8.000     60  148  236
            2  0  1  0     8.000     61  149  237
            1  2  0  0     8.000     62  150  238
            1  1  1  0     8.000     63  151  239
            1  0  2  0     8.000     64  152  240
            0  3  0  0     8.000     65  153  241
            0  2  1  0     8.000     66  154  242
            0  1  2  0     8.000     67  155  243
            0  0  3  0     8.000     68  156  244
            3  0  0  0     4.000     69  157  245
            2  1  0  0     4.000     70  158  246
            2  0  1  0     4.000     71  159  247
            1  2  0  0     4.000     72  160  248
            1  1  1  0     4.000     73  161  249
            1  0  2  0     4.000     74  162  250
            0  3  0  0     4.000     75  163  251
            0  2  1  0     4.000     76  164  252
            0  1  2  0     4.000     77  165  253
            0  0  3  0     4.000     78  166  254
            3  0  0  0     2.000     79  167  255
            2  1  0  0     2.000     80  168  256
            2  0  1  0     2.000     81  169  257
            1  2  0  0     2.000     82  170  258
            1  1  1  0     2.000     83  171  259
            1  0  2  0     2.000     84  172  260
            0  3  0  0     2.000     85  173  261
            0  2  1  0     2.000     86  174  262
            0  1  2  0     2.000     87  175  263
            0  0  3  0     2.000     88  176  264

 P                                    4
                                  ---------------------------------------------------------------------------
            0  0  0  0  7500.000    265
            0  0  0  0  1500.000    266
            0  0  0  0   375.000    267
            0  0  0  0   120.000    268
            0  0  0  0    48.700    269
            0  0  0  0    17.800    270
            0  0  0  0    13.350    271
            0  0  0  1    14.000    272
            0  0  0  1     5.950    273
            0  0  0  1     4.250    274
            0  0  0  2     3.300    275
            0  0  0  2     2.750    276
            0  0  0  2     1.800    277
            0  0  0  2     1.250    278
            1  0  0  0   120.000    279
            0  1  0  0   120.000    280
            0  0  1  0   120.000    281
            1  0  0  0    48.700    282
            0  1  0  0    48.700    283
            0  0  1  0    48.700    284
            1  0  0  0    17.800    285
            0  1  0  0    17.800    286
            0  0  1  0    17.800    287
            1  0  0  0    10.250    288
            0  1  0  0    10.250    289
            0  0  1  0    10.250    290
            1  0  0  0     5.900    291
            0  1  0  0     5.900    292
            0  0  1  0     5.900    293
            1  0  0  0     3.800    294
            0  1  0  0     3.800    295
            0  0  1  0     3.800    296
            1  0  0  1     3.250    297
            0  1  0  1     3.250    298
            0  0  1  1     3.250    299
            1  0  0  1     2.250    300
            0  1  0  1     2.250    301
            0  0  1  1     2.250    302
            1  0  0  1     1.350    303
            0  1  0  1     1.350    304
            0  0  1  1     1.350    305
            1  0  0  1     0.850    306
            0  1  0  1     0.850    307
            0  0  1  1     0.850    308
            2  0  0  0    20.000    309
            1  1  0  0    20.000    310
            1  0  1  0    20.000    311
            0  2  0  0    20.000    312
            0  1  1  0    20.000    313
            0  0  2  0    20.000    314
            2  0  0  0     8.000    315
            1  1  0  0     8.000    316
            1  0  1  0     8.000    317
            0  2  0  0     8.000    318
            0  1  1  0     8.000    319
            0  0  2  0     8.000    320
            2  0  0  0     4.000    321
            1  1  0  0     4.000    322
            1  0  1  0     4.000    323
            0  2  0  0     4.000    324
            0  1  1  0     4.000    325
            0  0  2  0     4.000    326
            2  0  0  0     2.000    327
            1  1  0  0     2.000    328
            1  0  1  0     2.000    329
            0  2  0  0     2.000    330
            0  1  1  0     2.000    331
            0  0  2  0     2.000    332
            2  0  0  0     1.000    333
            1  1  0  0     1.000    334
            1  0  1  0     1.000    335
            0  2  0  0     1.000    336
            0  1  1  0     1.000    337
            0  0  2  0     1.000    338
            3  0  0  0    12.500    339
            2  1  0  0    12.500    340
            2  0  1  0    12.500    341
            1  2  0  0    12.500    342
            1  1  1  0    12.500    343
            1  0  2  0    12.500    344
            0  3  0  0    12.500    345
            0  2  1  0    12.500    346
            0  1  2  0    12.500    347
            0  0  3  0    12.500    348
            3  0  0  0     5.000    349
            2  1  0  0     5.000    350
            2  0  1  0     5.000    351
            1  2  0  0     5.000    352
            1  1  1  0     5.000    353
            1  0  2  0     5.000    354
            0  3  0  0     5.000    355
            0  2  1  0     5.000    356
            0  1  2  0     5.000    357
            0  0  3  0     5.000    358
            3  0  0  0     2.500    359
            2  1  0  0     2.500    360
            2  0  1  0     2.500    361
            1  2  0  0     2.500    362
            1  1  1  0     2.500    363
            1  0  2  0     2.500    364
            0  3  0  0     2.500    365
            0  2  1  0     2.500    366
            0  1  2  0     2.500    367
            0  0  3  0     2.500    368
            3  0  0  0     1.250    369
            2  1  0  0     1.250    370
            2  0  1  0     1.250    371
            1  2  0  0     1.250    372
            1  1  1  0     1.250    373
            1  0  2  0     1.250    374
            0  3  0  0     1.250    375
            0  2  1  0     1.250    376
            0  1  2  0     1.250    377
            0  0  3  0     1.250    378

 C                                    5    6    7    8    9   10   11   12   13   14   15   16
                                  ---------------------------------------------------------------------------
            0  0  0  0  3000.000    379  466  553  640  727  814  901  988 1075 1162 1249 1336
            0  0  0  0   600.000    380  467  554  641  728  815  902  989 1076 1163 1250 1337
            0  0  0  0   150.000    381  468  555  642  729  816  903  990 1077 1164 1251 1338
            0  0  0  0    60.000    382  469  556  643  730  817  904  991 1078 1165 1252 1339
            0  0  0  0    24.000    383  470  557  644  731  818  905  992 1079 1166 1253 1340
            0  0  0  0    11.400    384  471  558  645  732  819  906  993 1080 1167 1254 1341
            0  0  0  0     6.600    385  472  559  646  733  820  907  994 1081 1168 1255 1342
            0  0  0  0     4.850    386  473  560  647  734  821  908  995 1082 1169 1256 1343
            0  0  0  1     5.900    387  474  561  648  735  822  909  996 1083 1170 1257 1344
            0  0  0  1     2.550    388  475  562  649  736  823  910  997 1084 1171 1258 1345
            0  0  0  1     1.650    389  476  563  650  737  824  911  998 1085 1172 1259 1346
            0  0  0  1     1.160    390  477  564  651  738  825  912  999 1086 1173 1260 1347
            1  0  0  0    60.000    391  478  565  652  739  826  913 1000 1087 1174 1261 1348
            0  1  0  0    60.000    392  479  566  653  740  827  914 1001 1088 1175 1262 1349
            0  0  1  0    60.000    393  480  567  654  741  828  915 1002 1089 1176 1263 1350
            1  0  0  0    24.000    394  481  568  655  742  829  916 1003 1090 1177 1264 1351
            0  1  0  0    24.000    395  482  569  656  743  830  917 1004 1091 1178 1265 1352
            0  0  1  0    24.000    396  483  570  657  744  831  918 1005 1092 1179 1266 1353
            1  0  0  0    11.400    397  484  571  658  745  832  919 1006 1093 1180 1267 1354
            0  1  0  0    11.400    398  485  572  659  746  833  920 1007 1094 1181 1268 1355
            0  0  1  0    11.400    399  486  573  660  747  834  921 1008 1095 1182 1269 1356
            1  0  0  0     5.150    400  487  574  661  748  835  922 1009 1096 1183 1270 1357
            0  1  0  0     5.150    401  488  575  662  749  836  923 1010 1097 1184 1271 1358
            0  0  1  0     5.150    402  489  576  663  750  837  924 1011 1098 1185 1272 1359
            1  0  0  0     2.400    403  490  577  664  751  838  925 1012 1099 1186 1273 1360
            0  1  0  0     2.400    404  491  578  665  752  839  926 1013 1100 1187 1274 1361
            0  0  1  0     2.400    405  492  579  666  753  840  927 1014 1101 1188 1275 1362
            1  0  0  0     1.300    406  493  580  667  754  841  928 1015 1102 1189 1276 1363
            0  1  0  0     1.300    407  494  581  668  755  842  929 1016 1103 1190 1277 1364
            0  0  1  0     1.300    408  495  582  669  756  843  930 1017 1104 1191 1278 1365
            1  0  0  0     0.780    409  496  583  670  757  844  931 1018 1105 1192 1279 1366
            0  1  0  0     0.780    410  497  584  671  758  845  932 1019 1106 1193 1280 1367
            0  0  1  0     0.780    411  498  585  672  759  846  933 1020 1107 1194 1281 1368
            2  0  0  0    10.000    412  499  586  673  760  847  934 1021 1108 1195 1282 1369
            1  1  0  0    10.000    413  500  587  674  761  848  935 1022 1109 1196 1283 1370
            1  0  1  0    10.000    414  501  588  675  762  849  936 1023 1110 1197 1284 1371
            0  2  0  0    10.000    415  502  589  676  763  850  937 1024 1111 1198 1285 1372
            0  1  1  0    10.000    416  503  590  677  764  851  938 1025 1112 1199 1286 1373
            0  0  2  0    10.000    417  504  591  678  765  852  939 1026 1113 1200 1287 1374
            2  0  0  0     5.000    418  505  592  679  766  853  940 1027 1114 1201 1288 1375
            1  1  0  0     5.000    419  506  593  680  767  854  941 1028 1115 1202 1289 1376
            1  0  1  0     5.000    420  507  594  681  768  855  942 1029 1116 1203 1290 1377
            0  2  0  0     5.000    421  508  595  682  769  856  943 1030 1117 1204 1291 1378
            0  1  1  0     5.000    422  509  596  683  770  857  944 1031 1118 1205 1292 1379
            0  0  2  0     5.000    423  510  597  684  771  858  945 1032 1119 1206 1293 1380
            2  0  0  0     2.500    424  511  598  685  772  859  946 1033 1120 1207 1294 1381
            1  1  0  0     2.500    425  512  599  686  773  860  947 1034 1121 1208 1295 1382
            1  0  1  0     2.500    426  513  600  687  774  861  948 1035 1122 1209 1296 1383
            0  2  0  0     2.500    427  514  601  688  775  862  949 1036 1123 1210 1297 1384
            0  1  1  0     2.500    428  515  602  689  776  863  950 1037 1124 1211 1298 1385
            0  0  2  0     2.500    429  516  603  690  777  864  951 1038 1125 1212 1299 1386
            2  0  0  0     1.500    430  517  604  691  778  865  952 1039 1126 1213 1300 1387
            1  1  0  0     1.500    431  518  605  692  779  866  953 1040 1127 1214 1301 1388
            1  0  1  0     1.500    432  519  606  693  780  867  954 1041 1128 1215 1302 1389
            0  2  0  0     1.500    433  520  607  694  781  868  955 1042 1129 1216 1303 1390
            0  1  1  0     1.500    434  521  608  695  782  869  956 1043 1130 1217 1304 1391
            0  0  2  0     1.500    435  522  609  696  783  870  957 1044 1131 1218 1305 1392
            3  0  0  0     8.000    436  523  610  697  784  871  958 1045 1132 1219 1306 1393
            2  1  0  0     8.000    437  524  611  698  785  872  959 1046 1133 1220 1307 1394
            2  0  1  0     8.000    438  525  612  699  786  873  960 1047 1134 1221 1308 1395
            1  2  0  0     8.000    439  526  613  700  787  874  961 1048 1135 1222 1309 1396
            1  1  1  0     8.000    440  527  614  701  788  875  962 1049 1136 1223 1310 1397
            1  0  2  0     8.000    441  528  615  702  789  876  963 1050 1137 1224 1311 1398
            0  3  0  0     8.000    442  529  616  703  790  877  964 1051 1138 1225 1312 1399
            0  2  1  0     8.000    443  530  617  704  791  878  965 1052 1139 1226 1313 1400
            0  1  2  0     8.000    444  531  618  705  792  879  966 1053 1140 1227 1314 1401
            0  0  3  0     8.000    445  532  619  706  793  880  967 1054 1141 1228 1315 1402
            3  0  0  0     4.000    446  533  620  707  794  881  968 1055 1142 1229 1316 1403
            2  1  0  0     4.000    447  534  621  708  795  882  969 1056 1143 1230 1317 1404
            2  0  1  0     4.000    448  535  622  709  796  883  970 1057 1144 1231 1318 1405
            1  2  0  0     4.000    449  536  623  710  797  884  971 1058 1145 1232 1319 1406
            1  1  1  0     4.000    450  537  624  711  798  885  972 1059 1146 1233 1320 1407
            1  0  2  0     4.000    451  538  625  712  799  886  973 1060 1147 1234 1321 1408
            0  3  0  0     4.000    452  539  626  713  800  887  974 1061 1148 1235 1322 1409
            0  2  1  0     4.000    453  540  627  714  801  888  975 1062 1149 1236 1323 1410
            0  1  2  0     4.000    454  541  628  715  802  889  976 1063 1150 1237 1324 1411
            0  0  3  0     4.000    455  542  629  716  803  890  977 1064 1151 1238 1325 1412
            3  0  0  0     2.000    456  543  630  717  804  891  978 1065 1152 1239 1326 1413
            2  1  0  0     2.000    457  544  631  718  805  892  979 1066 1153 1240 1327 1414
            2  0  1  0     2.000    458  545  632  719  806  893  980 1067 1154 1241 1328 1415
            1  2  0  0     2.000    459  546  633  720  807  894  981 1068 1155 1242 1329 1416
            1  1  1  0     2.000    460  547  634  721  808  895  982 1069 1156 1243 1330 1417
            1  0  2  0     2.000    461  548  635  722  809  896  983 1070 1157 1244 1331 1418
            0  3  0  0     2.000    462  549  636  723  810  897  984 1071 1158 1245 1332 1419
            0  2  1  0     2.000    463  550  637  724  811  898  985 1072 1159 1246 1333 1420
            0  1  2  0     2.000    464  551  638  725  812  899  986 1073 1160 1247 1334 1421
            0  0  3  0     2.000    465  552  639  726  813  900  987 1074 1161 1248 1335 1422

 H                                   17   18   19   20   21   22   23   24   25   26   27   28   29   30   31
                                     32   33   34   35   36   37   38   39   40   41
                                  ---------------------------------------------------------------------------
            0  0  0  0   500.000   1423 1462 1501 1540 1579 1618 1657 1696 1735 1774 1813 1852 1891 1930 1969
                                   2008 2047 2086 2125 2164 2203 2242 2281 2320 2359
            0  0  0  0   100.000   1424 1463 1502 1541 1580 1619 1658 1697 1736 1775 1814 1853 1892 1931 1970
                                   2009 2048 2087 2126 2165 2204 2243 2282 2321 2360
            0  0  0  0    25.000   1425 1464 1503 1542 1581 1620 1659 1698 1737 1776 1815 1854 1893 1932 1971
                                   2010 2049 2088 2127 2166 2205 2244 2283 2322 2361
            0  0  0  0     7.500   1426 1465 1504 1543 1582 1621 1660 1699 1738 1777 1816 1855 1894 1933 1972
                                   2011 2050 2089 2128 2167 2206 2245 2284 2323 2362
            0  0  0  0     3.300   1427 1466 1505 1544 1583 1622 1661 1700 1739 1778 1817 1856 1895 1934 1973
                                   2012 2051 2090 2129 2168 2207 2246 2285 2324 2363
            0  0  0  0     2.000   1428 1467 1506 1545 1584 1623 1662 1701 1740 1779 1818 1857 1896 1935 1974
                                   2013 2052 2091 2130 2169 2208 2247 2286 2325 2364
            0  0  0  0     1.400   1429 1468 1507 1546 1585 1624 1663 1702 1741 1780 1819 1858 1897 1936 1975
                                   2014 2053 2092 2131 2170 2209 2248 2287 2326 2365
            0  0  0  0     1.000   1430 1469 1508 1547 1586 1625 1664 1703 1742 1781 1820 1859 1898 1937 1976
                                   2015 2054 2093 2132 2171 2210 2249 2288 2327 2366
            0  0  0  0     0.710   1431 1470 1509 1548 1587 1626 1665 1704 1743 1782 1821 1860 1899 1938 1977
                                   2016 2055 2094 2133 2172 2211 2250 2289 2328 2367
            1  0  0  0    10.000   1432 1471 1510 1549 1588 1627 1666 1705 1744 1783 1822 1861 1900 1939 1978
                                   2017 2056 2095 2134 2173 2212 2251 2290 2329 2368
            0  1  0  0    10.000   1433 1472 1511 1550 1589 1628 1667 1706 1745 1784 1823 1862 1901 1940 1979
                                   2018 2057 2096 2135 2174 2213 2252 2291 2330 2369
            0  0  1  0    10.000   1434 1473 1512 1551 1590 1629 1668 1707 1746 1785 1824 1863 1902 1941 1980
                                   2019 2058 2097 2136 2175 2214 2253 2292 2331 2370
            1  0  0  0     4.000   1435 1474 1513 1552 1591 1630 1669 1708 1747 1786 1825 1864 1903 1942 1981
                                   2020 2059 2098 2137 2176 2215 2254 2293 2332 2371
            0  1  0  0     4.000   1436 1475 1514 1553 1592 1631 1670 1709 1748 1787 1826 1865 1904 1943 1982
                                   2021 2060 2099 2138 2177 2216 2255 2294 2333 2372
            0  0  1  0     4.000   1437 1476 1515 1554 1593 1632 1671 1710 1749 1788 1827 1866 1905 1944 1983
                                   2022 2061 2100 2139 2178 2217 2256 2295 2334 2373
            1  0  0  0     2.000   1438 1477 1516 1555 1594 1633 1672 1711 1750 1789 1828 1867 1906 1945 1984
                                   2023 2062 2101 2140 2179 2218 2257 2296 2335 2374
            0  1  0  0     2.000   1439 1478 1517 1556 1595 1634 1673 1712 1751 1790 1829 1868 1907 1946 1985
                                   2024 2063 2102 2141 2180 2219 2258 2297 2336 2375
            0  0  1  0     2.000   1440 1479 1518 1557 1596 1635 1674 1713 1752 1791 1830 1869 1908 1947 1986
                                   2025 2064 2103 2142 2181 2220 2259 2298 2337 2376
            1  0  0  0     1.000   1441 1480 1519 1558 1597 1636 1675 1714 1753 1792 1831 1870 1909 1948 1987
                                   2026 2065 2104 2143 2182 2221 2260 2299 2338 2377
            0  1  0  0     1.000   1442 1481 1520 1559 1598 1637 1676 1715 1754 1793 1832 1871 1910 1949 1988
                                   2027 2066 2105 2144 2183 2222 2261 2300 2339 2378
            0  0  1  0     1.000   1443 1482 1521 1560 1599 1638 1677 1716 1755 1794 1833 1872 1911 1950 1989
                                   2028 2067 2106 2145 2184 2223 2262 2301 2340 2379
            2  0  0  0     5.000   1444 1483 1522 1561 1600 1639 1678 1717 1756 1795 1834 1873 1912 1951 1990
                                   2029 2068 2107 2146 2185 2224 2263 2302 2341 2380
            1  1  0  0     5.000   1445 1484 1523 1562 1601 1640 1679 1718 1757 1796 1835 1874 1913 1952 1991
                                   2030 2069 2108 2147 2186 2225 2264 2303 2342 2381
            1  0  1  0     5.000   1446 1485 1524 1563 1602 1641 1680 1719 1758 1797 1836 1875 1914 1953 1992
                                   2031 2070 2109 2148 2187 2226 2265 2304 2343 2382
            0  2  0  0     5.000   1447 1486 1525 1564 1603 1642 1681 1720 1759 1798 1837 1876 1915 1954 1993
                                   2032 2071 2110 2149 2188 2227 2266 2305 2344 2383
            0  1  1  0     5.000   1448 1487 1526 1565 1604 1643 1682 1721 1760 1799 1838 1877 1916 1955 1994
                                   2033 2072 2111 2150 2189 2228 2267 2306 2345 2384
            0  0  2  0     5.000   1449 1488 1527 1566 1605 1644 1683 1722 1761 1800 1839 1878 1917 1956 1995
                                   2034 2073 2112 2151 2190 2229 2268 2307 2346 2385
            2  0  0  0     2.500   1450 1489 1528 1567 1606 1645 1684 1723 1762 1801 1840 1879 1918 1957 1996
                                   2035 2074 2113 2152 2191 2230 2269 2308 2347 2386
            1  1  0  0     2.500   1451 1490 1529 1568 1607 1646 1685 1724 1763 1802 1841 1880 1919 1958 1997
                                   2036 2075 2114 2153 2192 2231 2270 2309 2348 2387
            1  0  1  0     2.500   1452 1491 1530 1569 1608 1647 1686 1725 1764 1803 1842 1881 1920 1959 1998
                                   2037 2076 2115 2154 2193 2232 2271 2310 2349 2388
            0  2  0  0     2.500   1453 1492 1531 1570 1609 1648 1687 1726 1765 1804 1843 1882 1921 1960 1999
                                   2038 2077 2116 2155 2194 2233 2272 2311 2350 2389
            0  1  1  0     2.500   1454 1493 1532 1571 1610 1649 1688 1727 1766 1805 1844 1883 1922 1961 2000
                                   2039 2078 2117 2156 2195 2234 2273 2312 2351 2390
            0  0  2  0     2.500   1455 1494 1533 1572 1611 1650 1689 1728 1767 1806 1845 1884 1923 1962 2001
                                   2040 2079 2118 2157 2196 2235 2274 2313 2352 2391
            2  0  0  0     1.500   1456 1495 1534 1573 1612 1651 1690 1729 1768 1807 1846 1885 1924 1963 2002
                                   2041 2080 2119 2158 2197 2236 2275 2314 2353 2392
            1  1  0  0     1.500   1457 1496 1535 1574 1613 1652 1691 1730 1769 1808 1847 1886 1925 1964 2003
                                   2042 2081 2120 2159 2198 2237 2276 2315 2354 2393
            1  0  1  0     1.500   1458 1497 1536 1575 1614 1653 1692 1731 1770 1809 1848 1887 1926 1965 2004
                                   2043 2082 2121 2160 2199 2238 2277 2316 2355 2394
            0  2  0  0     1.500   1459 1498 1537 1576 1615 1654 1693 1732 1771 1810 1849 1888 1927 1966 2005
                                   2044 2083 2122 2161 2200 2239 2278 2317 2356 2395
            0  1  1  0     1.500   1460 1499 1538 1577 1616 1655 1694 1733 1772 1811 1850 1889 1928 1967 2006
                                   2045 2084 2123 2162 2201 2240 2279 2318 2357 2396
            0  0  2  0     1.500   1461 1500 1539 1578 1617 1656 1695 1734 1773 1812 1851 1890 1929 1968 2007
                                   2046 2085 2124 2163 2202 2241 2280 2319 2358 2397

 Total number of charge fitting functions (nprimf)      5576
 Total number of Cartesian basis functions (naos)       2397
 Total number of Cartesian core functions  (ncos)          0

1
 ***************************************************************************************************



                                              ***********************
                                              *  T E C H N I C A L  *
                                              ***********************
  



 =============================================================
 P A R A L L E L I Z A T I O N  and  V E C T O R I Z A T I O N
 =============================================================
  
 Nr of parallel processes:                                4
 Maximum vector length in NumInt loops:                 128



 =====================
 S C F   U P D A T E S
 =====================
  
 Max. nr. of cycles:                               300
 Convergence criterion:                              0.0000010000
   secondary criterion:                              0.0010000000

 Mix parameter (when DIIS does not apply):           0.2000000000
 Mixed ADIIS+SDIIS will be used                  
    Max number of expansion vectors:                10
    Pure ADIIS when Max([F,P]) is above              0.1000000000
    Pure SDIIS when Max([F,P]) is below              0.0010000000
 Automatic ElectronSmearing (in case of problematic SCF convergence) disabled



 =================
 P R E C I S I O N  ***  (General: NumInt, NeglectFunctionTails, ...)  ***
 =================
  

 NumInt:           Target precision:                 6.0000000000
 -------           Initial precision:                6.0000000000
                   Min. precision (optimization):    6.0000000000

 Neglect Functions:          Basis functions:        0.1000000000E-07
 ------------------          Fit functions:          0.1000000000E-07



 ===========================
 L I N E A R   S C A L I N G
 ===========================
  

 Cut-off radii density fit:                        0.1000000000E-09
 Overlap cut-off criterion AO matrix elements:     0.1000000000E-07
 Cut-offs for Coulomb potential and fitted density:0.1000000000E-09
 Cut-off criterion for Coulomb multipole terms:    0.1000000000E-09
 Progressive Convergence parameter:                 0.000000000    
1
 ***************************************************************************************************



                                            ***************************
                                            *  C O M P U T A T I O N  *
                                            ***************************
  

 Number of elements of the density matrix on this node (used, total):    716977   2874003

 The calculation MAY be unreliable as a result of near linear dependency in the basis.
 Tested is the smallest eigenvalue of the overlap matrix of the basis functions:    0.37476E-05
 Experience shows that such a small value may result in loss of accuracy. Check the
 results of your calculation. If the SCF fit error and the orbital energies look fine,
 your results are reliable. If not, you may consider using the key DEPENDENCY in INPUT.



 ===========================================
 Numerical Integration : Fuzzy Cells (Becke)
 ===========================================
  
 Becke grid quality: GOOD           
  
 Lebedev angular grid order:             min:  11 max:  31
 Nr. of radial points:                   min: 167 max: 331

 Total nr. of points:    1837466
 Nr. of blocks:            14356
 Block length:               128
 Nr. of dummy points:        102


 Test of Precision of the Numerical Integration Grid
 ===================================================

 Integral of the Total Core Density:                   0.00000000000000


 -------------------------------------------
  COSMO surface
  Area             =          980.254
  Volume           =         2234.909
  Number of Points =         2307
 -------------------------------------------



 ========================
 Density Fitting (zlmFit)
 ========================
  
 ZlmFit Fit Quality: GOOD           
  
 Max L-expansion:                        min:   8 max:   9
 Nr. of radial interpolation points:     min: 270 max: 492



 =====
 S C F  ***  ScaSCF  ***
 =====
  
 Initial density matrix is calculated as sum of fragments

 CYCLE    1
 SCF Error: norm([F,P])=     10.473383342933, max([F,P])=      1.045581548210
 orbitals (Q,E):
 ---------------
 A :59...78          ( 2.00    -0.4961)  ( 2.00    -0.4915)  ( 2.00    -0.4894)  ( 2.00    -0.4547)
                     ( 2.00    -0.4489)  ( 2.00    -0.4457)  ( 2.00    -0.4373)  ( 2.00    -0.4268)
                     ( 2.00    -0.3993)  ( 2.00    -0.3069)  ( 0.00    -0.0979)  ( 0.00    -0.0863)
                     ( 0.00    -0.0805)  ( 0.00    -0.0770)  ( 0.00    -0.0734)  ( 0.00    -0.0514)
                     ( 0.00    -0.0473)  ( 0.00    -0.0457)  ( 0.00    -0.0423)  ( 0.00    -0.0392)

 CYCLE    2
   MIX coefficients:  0.8000  0.2000
 SCF Error: norm([F,P])=      1.735083307398, max([F,P])=      0.193429098367
 orbitals (Q,E):
 ---------------
 A :59...69          ( 2.00    -0.4269)  ( 2.00    -0.4162)  ( 2.00    -0.4137)  ( 2.00    -0.3931)
                     ( 2.00    -0.3889)  ( 2.00    -0.3842)  ( 2.00    -0.3774)  ( 2.00    -0.3630)
                     ( 2.00    -0.3347)  ( 2.00    -0.2805)  ( 0.00    -0.0710)

 CYCLE    3
  SDIIS (wt  0.000): -1.0445  2.0445
 A-DIIS (wt  1.000):  0.0000  1.0000
  DIIS coefficients:  0.0000  1.0000
 SCF Error: norm([F,P])=      0.930838654223, max([F,P])=      0.099786920977
 orbitals (Q,E):
 ---------------
 A :59...69          ( 2.00    -0.2359)  ( 2.00    -0.2211)  ( 2.00    -0.2170)  ( 2.00    -0.2129)
                     ( 2.00    -0.1987)  ( 2.00    -0.1882)  ( 2.00    -0.1837)  ( 2.00    -0.1730)
                     ( 2.00    -0.1642)  ( 2.00    -0.1489)  ( 0.00     0.0018)

 CYCLE    4
  SDIIS (wt  0.000):  0.1286  0.4268  0.4446
 A-DIIS (wt  1.000):  0.0000  0.6657  0.3343
  DIIS coefficients:  0.0000  0.6657  0.3343
 SCF Error: norm([F,P])=      1.380937337343, max([F,P])=      0.165550276843
 orbitals (Q,E):
 ---------------
 A :59...69          ( 2.00    -0.2982)  ( 2.00    -0.2868)  ( 2.00    -0.2817)  ( 2.00    -0.2773)
                     ( 2.00    -0.2733)  ( 2.00    -0.2645)  ( 2.00    -0.2602)  ( 2.00    -0.2480)
                     ( 2.00    -0.2247)  ( 2.00    -0.2019)  ( 0.00    -0.0089)

 CYCLE    5
  SDIIS (wt  0.768):  0.0742  0.1661  0.1303  0.6294
 A-DIIS (wt  0.232):  0.0000  0.0000  0.0000  1.0000
  DIIS coefficients:  0.0570  0.1275  0.1000  0.7155
 SCF Error: norm([F,P])=      0.217340450309, max([F,P])=      0.023999755132
 orbitals (Q,E):
 ---------------
 A :59...69          ( 2.00    -0.3113)  ( 2.00    -0.2943)  ( 2.00    -0.2895)  ( 2.00    -0.2878)
                     ( 2.00    -0.2836)  ( 2.00    -0.2735)  ( 2.00    -0.2694)  ( 2.00    -0.2533)
                     ( 2.00    -0.2286)  ( 2.00    -0.2066)  ( 0.00    -0.0128)

 CYCLE    6
  SDIIS (wt  0.780):  0.0176  0.0466  0.0154  0.4630  0.4574
 A-DIIS (wt  0.220):  0.0000  0.0000  0.0000  0.2801  0.7199
  DIIS coefficients:  0.0137  0.0364  0.0120  0.4228  0.5152
 SCF Error: norm([F,P])=      0.143300982090, max([F,P])=      0.022793530535
 orbitals (Q,E):
 ---------------
 A :59...69          ( 2.00    -0.3101)  ( 2.00    -0.2951)  ( 2.00    -0.2902)  ( 2.00    -0.2863)
                     ( 2.00    -0.2829)  ( 2.00    -0.2739)  ( 2.00    -0.2697)  ( 2.00    -0.2567)
                     ( 2.00    -0.2325)  ( 2.00    -0.2098)  ( 0.00    -0.0130)

 CYCLE    7
  SDIIS (wt  0.870): -0.0091  0.0292 -0.0041  0.2203  0.3357  0.4280
 A-DIIS (wt  0.130):  0.0000  0.0000  0.0000  0.0000  0.0570  0.9430
  DIIS coefficients: -0.0079  0.0254 -0.0035  0.1917  0.2995  0.4948
 SCF Error: norm([F,P])=      0.052021210515, max([F,P])=      0.013849292691
 orbitals (Q,E):
 ---------------
 A :59...69          ( 2.00    -0.3091)  ( 2.00    -0.2943)  ( 2.00    -0.2894)  ( 2.00    -0.2862)
                     ( 2.00    -0.2826)  ( 2.00    -0.2732)  ( 2.00    -0.2690)  ( 2.00    -0.2544)
                     ( 2.00    -0.2304)  ( 2.00    -0.2073)  ( 0.00    -0.0126)

 CYCLE    8
  SDIIS (wt  0.946): -0.0015  0.0014 -0.0028  0.0579  0.1211  0.3551  0.4687
 A-DIIS (wt  0.054):  0.0000  0.0000  0.0000  0.0000  0.0000  0.2316  0.7684
  DIIS coefficients: -0.0014  0.0013 -0.0027  0.0548  0.1146  0.3485  0.4848
 SCF Error: norm([F,P])=      0.024209436498, max([F,P])=      0.006300230462
 orbitals (Q,E):
 ---------------
 A :59...69          ( 2.00    -0.3095)  ( 2.00    -0.2940)  ( 2.00    -0.2893)  ( 2.00    -0.2860)
                     ( 2.00    -0.2825)  ( 2.00    -0.2731)  ( 2.00    -0.2691)  ( 2.00    -0.2549)
                     ( 2.00    -0.2306)  ( 2.00    -0.2077)  ( 0.00    -0.0127)

 CYCLE    9
  SDIIS (wt  1.000):  0.0017 -0.0039 -0.0007  0.0138  0.0374  0.1610  0.2881  0.5025
  DIIS coefficients:  0.0017 -0.0039 -0.0007  0.0138  0.0374  0.1610  0.2881  0.5025
 SCF Error: norm([F,P])=      0.004691579780, max([F,P])=      0.000836353045
 orbitals (Q,E):
 ---------------
 A :59...69          ( 2.00    -0.3094)  ( 2.00    -0.2943)  ( 2.00    -0.2895)  ( 2.00    -0.2861)
                     ( 2.00    -0.2826)  ( 2.00    -0.2732)  ( 2.00    -0.2690)  ( 2.00    -0.2549)
                     ( 2.00    -0.2309)  ( 2.00    -0.2079)  ( 0.00    -0.0127)

 CYCLE   10
  SDIIS (wt  1.000):  0.0003 -0.0013 -0.0001 -0.0033 -0.0031  0.0153  0.0653  0.3010  0.6259
  DIIS coefficients:  0.0003 -0.0013 -0.0001 -0.0033 -0.0031  0.0153  0.0653  0.3010  0.6259
 SCF Error: norm([F,P])=      0.001637396676, max([F,P])=      0.000264043986
 orbitals (Q,E):
 ---------------
 A :59...69          ( 2.00    -0.3094)  ( 2.00    -0.2942)  ( 2.00    -0.2895)  ( 2.00    -0.2861)
                     ( 2.00    -0.2826)  ( 2.00    -0.2732)  ( 2.00    -0.2691)  ( 2.00    -0.2549)
                     ( 2.00    -0.2308)  ( 2.00    -0.2079)  ( 0.00    -0.0127)

 CYCLE   11
  SDIIS (wt  1.000):  0.0002 -0.0006  0.0000 -0.0022 -0.0030 -0.0006  0.0166  0.1228  0.2941  0.5726
  DIIS coefficients:  0.0002 -0.0006  0.0000 -0.0022 -0.0030 -0.0006  0.0166  0.1228  0.2941  0.5726
 SCF Error: norm([F,P])=      0.000333053664, max([F,P])=      0.000050290392
 orbitals (Q,E):
 ---------------
 A :59...69          ( 2.00    -0.3094)  ( 2.00    -0.2942)  ( 2.00    -0.2894)  ( 2.00    -0.2861)
                     ( 2.00    -0.2826)  ( 2.00    -0.2732)  ( 2.00    -0.2690)  ( 2.00    -0.2549)
                     ( 2.00    -0.2308)  ( 2.00    -0.2078)  ( 0.00    -0.0127)

 CYCLE   12
  SDIIS (wt  1.000): -0.0001 -0.0000 -0.0007 -0.0011 -0.0014  0.0027  0.0362  0.0897  0.2815  0.5932
  DIIS coefficients: -0.0001 -0.0000 -0.0007 -0.0011 -0.0014  0.0027  0.0362  0.0897  0.2815  0.5932
 SCF Error: norm([F,P])=      0.000104448492, max([F,P])=      0.000017016225
 orbitals (Q,E):
 ---------------
 A :59...69          ( 2.00    -0.3094)  ( 2.00    -0.2942)  ( 2.00    -0.2894)  ( 2.00    -0.2861)
                     ( 2.00    -0.2826)  ( 2.00    -0.2732)  ( 2.00    -0.2690)  ( 2.00    -0.2549)
                     ( 2.00    -0.2308)  ( 2.00    -0.2079)  ( 0.00    -0.0127)

 CYCLE   13
  SDIIS (wt  1.000):  0.0000 -0.0001 -0.0002 -0.0009 -0.0009  0.0051  0.0132  0.1059  0.4129  0.4650
  DIIS coefficients:  0.0000 -0.0001 -0.0002 -0.0009 -0.0009  0.0051  0.0132  0.1059  0.4129  0.4650
 SCF Error: norm([F,P])=      0.000063822238, max([F,P])=      0.000013828156
 orbitals (Q,E):
 ---------------
 A :59...69          ( 2.00    -0.3094)  ( 2.00    -0.2942)  ( 2.00    -0.2894)  ( 2.00    -0.2861)
                     ( 2.00    -0.2826)  ( 2.00    -0.2732)  ( 2.00    -0.2690)  ( 2.00    -0.2549)
                     ( 2.00    -0.2308)  ( 2.00    -0.2079)  ( 0.00    -0.0127)

 CYCLE   14
  SDIIS (wt  1.000):  0.0000  0.0000 -0.0002 -0.0005 -0.0010 -0.0022  0.0230  0.1498  0.2768  0.5542
  DIIS coefficients:  0.0000  0.0000 -0.0002 -0.0005 -0.0010 -0.0022  0.0230  0.1498  0.2768  0.5542
 SCF Error: norm([F,P])=      0.000019634170, max([F,P])=      0.000003632366
 orbitals (Q,E):
 ---------------
 A :59...69          ( 2.00    -0.3094)  ( 2.00    -0.2942)  ( 2.00    -0.2894)  ( 2.00    -0.2861)
                     ( 2.00    -0.2826)  ( 2.00    -0.2732)  ( 2.00    -0.2690)  ( 2.00    -0.2549)
                     ( 2.00    -0.2308)  ( 2.00    -0.2079)  ( 0.00    -0.0127)

 CYCLE   15
  SDIIS (wt  1.000):  0.0000 -0.0000 -0.0001 -0.0006 -0.0010  0.0032  0.0328  0.0768  0.2126  0.6764
  DIIS coefficients:  0.0000 -0.0000 -0.0001 -0.0006 -0.0010  0.0032  0.0328  0.0768  0.2126  0.6764
 SCF Error: norm([F,P])=      0.000003552491, max([F,P])=      0.000000623421
 orbitals (Q,E):
 ---------------
 A :59...69          ( 2.00    -0.3094)  ( 2.00    -0.2942)  ( 2.00    -0.2894)  ( 2.00    -0.2861)
                     ( 2.00    -0.2826)  ( 2.00    -0.2732)  ( 2.00    -0.2690)  ( 2.00    -0.2549)
                     ( 2.00    -0.2308)  ( 2.00    -0.2079)  ( 0.00    -0.0127)

 SCF CONVERGED
 cosmo_calcen: 0.5 (esolb+esolc) (Hartrees) =   -0.006180

 Solvation energy (screening term,uncorrected) =     -3.878204 kcal/mol

 Solvation energy (dispersion and cavitation terms) =      1.469875 kcal/mol
 Solvation Energy Contributions (Hartrees)
          esola   esolb+esolc
     0.00618031   -0.01236062
 esol last cycle   -0.00618031

 CYCLE   16
1
 ***************************************************************************************************



                                                *******************
                                                *  R E S U L T S  *
                                                *******************
  
 *** Using FIT density in Focky
  SDIIS (wt  1.000): -0.0000 -0.0001 -0.0004 -0.0007 -0.0016  0.0013  0.0150  0.0693  0.3856  0.5315
  DIIS coefficients: -0.0000 -0.0001 -0.0004 -0.0007 -0.0016  0.0013  0.0150  0.0693  0.3856  0.5315
 SCF Error: norm([F,P])=      0.000001833645, max([F,P])=      0.000000321974

 Orbital Energies, per Irrep and Spin:
 ======================================
                        Occup              E (au)              E (eV)       Diff (eV) with prev. cycle
                        -----      --------------------        ------       --------------------------
 A
              59        2.000     -0.30940061909172E+00        -8.419               1.59E-06
              60        2.000     -0.29418888776942E+00        -8.005               1.81E-06
              61        2.000     -0.28943887011085E+00        -7.876               1.96E-06
              62        2.000     -0.28610304845419E+00        -7.785               1.85E-06
              63        2.000     -0.28255490128375E+00        -7.689               1.97E-06
              64        2.000     -0.27319412698958E+00        -7.434               2.14E-06
              65        2.000     -0.26903727630502E+00        -7.321               2.29E-06
              66        2.000     -0.25487366012487E+00        -6.935               1.72E-06
              67        2.000     -0.23081771940322E+00        -6.281               1.55E-06
              68        2.000     -0.20785476072503E+00        -5.656              -4.82E-07
              69        0.000     -0.12721941570221E-01        -0.346
              70        0.000     -0.11965722000533E-01        -0.326
              71        0.000     -0.70113301345891E-02        -0.191
              72        0.000      0.60820244542302E-02         0.166
              73        0.000      0.78816011348552E-02         0.214
              74        0.000      0.14257723714375E-01         0.388
              75        0.000      0.16470784470328E-01         0.448
              76        0.000      0.19279451413457E-01         0.525
              77        0.000      0.23180041077201E-01         0.631
              78        0.000      0.29508148270214E-01         0.803
  
 HOMO :       68 A                -0.20785476072503E+00
 LUMO :       69 A                -0.12721941570221E-01
  
 cosmo_calcen: 0.5 (esolb+esolc) (Hartrees) =   -0.006180

 Solvation energy (screening term,uncorrected) =     -3.878205 kcal/mol

 Solvation energy (dispersion and cavitation terms) =      1.469875 kcal/mol
 Solvation Energy Contributions (Hartrees)
          esola   esolb+esolc
     0.00618031   -0.01236063
 esol last cycle   -0.00618031


 All Electron Calculation, thus no Orbital Energies of the Core Orbitals are calculated


 Fit test: (difference of exact and fit density, squared integrated, result summed over spins)
         Sum-of-Fragments:                             0.00000000003049
         Orthogonalized Fragments:                     0.00005004141787
         SCF:                                          0.00011827791464



 ==========================
 Electron Density at Nuclei
 ==========================
  
 The electron density is calculated at points on a small sphere around the center of a nucleus.
 The printed electron density is the average electron density on these points.
 The radius of the sphere is the printed approximate finite nuclear radius.

         Atom        Nuclear Radius (Angstrom)             Electron Density (a.u.)
         ----        -------------------------             -----------------------
     1)   O                 0.0000345546                              310.73163
     2)   P                 0.0000412627                             2180.57542
     3)   O                 0.0000345546                              310.80097
     4)   O                 0.0000345546                              310.75917
     5)   C                 0.0000320678                              126.20969
     6)   C                 0.0000320678                              126.21263
     7)   C                 0.0000320678                              126.17519
     8)   C                 0.0000320678                              126.17135
     9)   C                 0.0000320678                              126.17951
    10)   C                 0.0000320678                              126.17034
    11)   H                 0.0000181514                                0.48064
    12)   H                 0.0000181514                                0.48170
    13)   H                 0.0000181514                                0.48039
    14)   H                 0.0000181514                                0.48162
    15)   H                 0.0000181514                                0.47896
    16)   H                 0.0000181514                                0.47991
    17)   H                 0.0000181514                                0.48070
    18)   H                 0.0000181514                                0.48074
    19)   H                 0.0000181514                                0.47997
    20)   H                 0.0000181514                                0.47891
    21)   H                 0.0000181514                                0.48012
    22)   H                 0.0000181514                                0.48164
    23)   C                 0.0000320678                              126.21045
    24)   C                 0.0000320678                              126.12355
    25)   H                 0.0000181514                                0.48029
    26)   H                 0.0000181514                                0.48067
    27)   C                 0.0000320678                              126.16565
    28)   C                 0.0000320678                              126.17360
    29)   H                 0.0000181514                                0.48036
    30)   C                 0.0000320678                              126.16573
    31)   H                 0.0000181514                                0.48977
    32)   C                 0.0000320678                              126.17224
    33)   H                 0.0000181514                                0.48140
    34)   H                 0.0000181514                                0.48244
    35)   H                 0.0000181514                                0.48099
    36)   H                 0.0000181514                                0.48278
    37)   H                 0.0000181514                                0.48212
    38)   H                 0.0000181514                                0.48122
    39)   H                 0.0000181514                                0.48096
    40)   H                 0.0000181514                                0.48065
    41)   H                 0.0000181514                                0.48323



 =======================================
 M U L L I K E N   P O P U L A T I O N S
 =======================================
  
 The survey below gives for each atom:
 a) the total charge (Z minus electrons)
 b) the net spin polarization (nr of electrons spin-A minus spin-B)
 c) for each spin the atomic electron valence density (integrated) per L-value.

 Atom              Charge    Spin density          S         P         D         F
 ----              ------    ------------       ------    ------    ------    ------
 1 O              -0.6977                       4.0836    4.4901    0.1045    0.0194
 2 P               1.6167                       5.2022    7.4584    0.6179    0.1049
 3 O              -0.8375                       3.9295    4.7862    0.1047    0.0170
 4 O              -0.7460                       3.8497    4.7755    0.1036    0.0171
 5 C               0.7905                       2.8096    1.9002    0.4292    0.0704
 6 C               0.8263                       2.7871    1.8839    0.4322    0.0706
 7 C              -0.6648                       2.5354    3.9135    0.1958    0.0202
 8 C              -0.8067                       2.4365    4.1574    0.1920    0.0209
 9 C              -0.8239                       2.4915    4.1102    0.2017    0.0206
 10 C             -0.8176                       2.4310    4.1744    0.1915    0.0207
 11 H              0.0973                       0.6579    0.2155    0.0293    0.0000
 12 H              0.2133                       0.5012    0.2523    0.0333    0.0000
 13 H              0.1472                       0.6021    0.2219    0.0289    0.0000
 14 H              0.1776                       0.5486    0.2436    0.0302    0.0000
 15 H              0.1881                       0.5451    0.2365    0.0302    0.0000
 16 H              0.1455                       0.6034    0.2223    0.0288    0.0000
 17 H              0.2024                       0.5378    0.2306    0.0292    0.0000
 18 H              0.2102                       0.5236    0.2356    0.0306    0.0000
 19 H              0.1429                       0.6086    0.2202    0.0283    0.0000
 20 H              0.1981                       0.5358    0.2357    0.0303    0.0000
 21 H              0.1438                       0.6039    0.2234    0.0289    0.0000
 22 H              0.1760                       0.5488    0.2447    0.0305    0.0000
 23 C              0.5124                       2.6426    2.3609    0.4256    0.0585
 24 C              0.9852                       2.8062    1.7921    0.3645    0.0520
 25 H              0.2260                       0.5451    0.2032    0.0258    0.0000
 26 H              0.2656                       0.4711    0.2348    0.0285    0.0000
 27 C             -0.7473                       2.4290    4.0955    0.2030    0.0198
 28 C             -0.6955                       2.4981    3.9826    0.1941    0.0206
 29 H              0.1892                       0.5567    0.2261    0.0280    0.0000
 30 C             -0.9710                       2.5288    4.2253    0.1980    0.0188
 31 H             -0.1507                       0.7768    0.3332    0.0406    0.0000
 32 C             -0.8656                       2.5100    4.1276    0.2073    0.0207
 33 H              0.0696                       0.7039    0.1995    0.0270    0.0000
 34 H              0.1344                       0.5781    0.2549    0.0325    0.0000
 35 H              0.1700                       0.5666    0.2335    0.0299    0.0000
 36 H              0.1436                       0.5815    0.2445    0.0304    0.0000
 37 H              0.1309                       0.5879    0.2499    0.0313    0.0000
 38 H              0.1526                       0.5873    0.2304    0.0297    0.0000
 39 H              0.1918                       0.5678    0.2132    0.0273    0.0000
 40 H              0.1934                       0.5444    0.2335    0.0287    0.0000
 41 H              0.1835                       0.5461    0.2414    0.0290    0.0000

 Populations of individual BAS functions
 ----------------------------------------
 1 O            0.0000 -0.0000  0.0000 -0.0001  0.0015 -0.0033  1.3361  0.5288  0.0912  0.6340
                1.0088  0.2400  0.2466  0.0000  0.0000  0.0000 -0.0000 -0.0000 -0.0000  0.0004
                0.0005  0.0005  0.0402  0.0512  0.0491  0.4164  0.5601  0.5431  1.0716  0.9241
                0.9215 -0.4194  0.2072  0.1236  0.0001  0.0000  0.0000 -0.0001  0.0000 -0.0000
               -0.0016 -0.0000 -0.0001  0.0009 -0.0000  0.0005  0.0256  0.0024  0.0071 -0.0096
                0.0026 -0.0052  0.0070  0.0251  0.0251  0.0081  0.0062  0.0103 -0.0006 -0.0004
               -0.0005  0.0003 -0.0000  0.0002  0.0003  0.0002  0.0001  0.0004  0.0058  0.0031
                0.0048 -0.0033  0.0001 -0.0022 -0.0025 -0.0013 -0.0004 -0.0033 -0.0009  0.0068
               -0.0007  0.0019  0.0016  0.0057 -0.0039 -0.0012  0.0023  0.0073
 3 O            0.0000 -0.0000  0.0000 -0.0001  0.0015 -0.0035  1.3387  0.5268  0.0905  0.6465
                0.9924  0.2446  0.0921  0.0000  0.0000  0.0000 -0.0000 -0.0000 -0.0000  0.0005
                0.0005  0.0005  0.0430  0.0465  0.0459  0.4928  0.5416  0.5331  0.8622  0.8643
                0.8228  0.0855  0.1702  0.2770  0.0000  0.0000  0.0000 -0.0000  0.0000 -0.0000
               -0.0004 -0.0001 -0.0001 -0.0000 -0.0000  0.0004  0.0070  0.0055  0.0048 -0.0009
                0.0037 -0.0023  0.0167  0.0188  0.0108  0.0049  0.0147  0.0212 -0.0002 -0.0002
               -0.0002  0.0002 -0.0000  0.0001  0.0004  0.0001 -0.0001  0.0001  0.0017  0.0024
                0.0018 -0.0013  0.0002 -0.0003 -0.0037 -0.0006  0.0013 -0.0010 -0.0011 -0.0036
               -0.0013  0.0070  0.0016 -0.0000  0.0124  0.0043 -0.0036  0.0007
 4 O            0.0000 -0.0000  0.0000 -0.0001  0.0015 -0.0034  1.3378  0.5269  0.0914  0.6374
                1.0149  0.2082  0.0349  0.0000  0.0000  0.0000 -0.0000 -0.0000 -0.0000  0.0005
                0.0006  0.0006  0.0391  0.0463  0.0499  0.4589  0.5440  0.5672  0.7987  0.8460
                0.9134  0.1174  0.2047  0.1884  0.0001  0.0000  0.0000 -0.0000  0.0000 -0.0001
               -0.0008 -0.0001 -0.0001  0.0001 -0.0000  0.0007  0.0136  0.0065  0.0047 -0.0018
                0.0027 -0.0079  0.0204  0.0215  0.0168  0.0070  0.0121  0.0084 -0.0003 -0.0004
               -0.0002  0.0001 -0.0000  0.0002  0.0003  0.0001  0.0001  0.0001  0.0028  0.0042
                0.0023 -0.0009  0.0001 -0.0018 -0.0034 -0.0013 -0.0006 -0.0008  0.0076 -0.0025
                0.0069  0.0026  0.0028 -0.0038  0.0111  0.0080 -0.0048 -0.0114
 2 P           -0.0000  0.0000 -0.0000  0.0000 -0.0002  0.5968  1.4142 -0.0785  1.1233  1.0318
               -0.6545  1.1092  0.9630 -0.3031  0.0000  0.0000  0.0000 -0.0000 -0.0000 -0.0000
                0.0031  0.0031  0.0032  0.1411  0.1408  0.1413  1.1018  1.1005  1.1081  0.7895
                0.7879  0.7856 -0.1653 -0.1529 -0.1705  0.6223  0.5802  0.7069 -0.0113 -0.0684
                0.1840 -0.0902 -0.1110  0.0285  0.0000 -0.0000 -0.0000  0.0000 -0.0000 -0.0000
                0.0001  0.0002  0.0002 -0.0000  0.0001  0.0001 -0.0007  0.0005  0.0002 -0.0001
               -0.0002  0.0012  0.0417  0.1096  0.0741  0.0438  0.0690  0.0163  0.0663  0.0329
                0.0686  0.0120  0.0073  0.0746  0.0000  0.0000  0.0000 -0.0000  0.0000  0.0000
               -0.0000 -0.0000  0.0000  0.0000  0.0000 -0.0004 -0.0003 -0.0001 -0.0002 -0.0001
                0.0005  0.0000 -0.0002  0.0001 -0.0008  0.0152  0.0106  0.0130  0.0119  0.0030
               -0.0050  0.0077  0.0037 -0.0082  0.0182  0.0015  0.0083 -0.0007  0.0055  0.0081
                0.0060  0.0028  0.0003  0.0045
 5 C            0.0000 -0.0000  0.0000 -0.0001  0.0014  0.0146  0.9964  0.6280  0.2753  0.2052
                1.4217 -0.7329  0.0000  0.0000  0.0000 -0.0000 -0.0000 -0.0000  0.0000  0.0001
                0.0001  0.0142  0.0152  0.0152  0.1427  0.1821  0.1693  1.2658  1.3456  1.3755
               -0.8398 -0.9008 -0.8847  0.0000  0.0000  0.0000 -0.0000  0.0000 -0.0000  0.0000
               -0.0002 -0.0001 -0.0000 -0.0001 -0.0001 -0.0040  0.0071  0.0017  0.0021  0.0026
                0.0029  0.0665  0.0691  0.0948  0.0461  0.0868  0.0542  0.0000 -0.0001 -0.0000
               -0.0000 -0.0000 -0.0000  0.0000  0.0000  0.0000  0.0000 -0.0005  0.0007 -0.0000
                0.0004  0.0001 -0.0000 -0.0004 -0.0000 -0.0003 -0.0001  0.0047  0.0059  0.0106
                0.0075  0.0099  0.0115  0.0008  0.0082  0.0099  0.0016
 6 C            0.0000 -0.0000  0.0000 -0.0001  0.0014  0.0144  0.9887  0.6367  0.2738  0.2078
                1.4271 -0.7629  0.0000  0.0000  0.0000 -0.0000 -0.0000 -0.0000  0.0001  0.0001
                0.0001  0.0138  0.0153  0.0151  0.1377  0.1831  0.1771  1.2486  1.3608  1.3575
               -0.7834 -0.9285 -0.9135  0.0001  0.0000  0.0000 -0.0000  0.0000 -0.0000 -0.0001
               -0.0001 -0.0002 -0.0001 -0.0002  0.0001 -0.0030  0.0035  0.0031  0.0026  0.0054
                0.0007  0.0737  0.0817  0.0998  0.0453  0.0752  0.0448  0.0000 -0.0000 -0.0001
               -0.0000 -0.0000 -0.0000  0.0000  0.0000 -0.0000  0.0001 -0.0006  0.0003  0.0006
                0.0002  0.0001  0.0001 -0.0005 -0.0000  0.0001 -0.0006  0.0088  0.0089  0.0106
                0.0072  0.0087  0.0101  0.0016  0.0087  0.0072 -0.0009
 7 C            0.0000 -0.0000  0.0000 -0.0001  0.0015  0.0122  0.8815  0.8537  0.1743  0.1808
                1.4500 -1.0186  0.0000  0.0000  0.0000 -0.0000 -0.0000 -0.0000  0.0001  0.0001
[...]
 *                              |               |                              *
 *                              =================                              *
 *                                                                             *
 *                                                                             *
 *   Online information and documentation:  https://www.scm.com/support/       *
 *   E-mail:  support@scm.com   info@scm.com                                   *
 *                                                                             *
 *   Scientific publications using AMS results must be properly referenced     *
 *   See the User Manuals (or the web site) for recommended citations          *
 *   The terms and conditions of the End User License Agreement apply to       *
 *   the use of AMS, https://www.scm.com/license-terms/                        *
 *                                                                             *
 **********************  x86_64_linux_intel / intelmpi  ************************
 
 Licensed to: Dr. Miroslav Ilias / Matej Bel University, Department Chemistry, Fac. Natural Sciences / Banska Bystrica / SLOVAKIA
 SCM User ID: u17848
  
 CPL 2021.105  RunTime: Dec15-2021 11:22:21  ShM Nodes: 1  Procs: 4

 Temporary files are created in /tmp/kid_0.990236447 (0xEF53)


 Communication costs MPI_COMM_WORLD:      0.247 usec per message,   0.0034 usec per 8-byte item
 Communication costs for intra-node:      0.259 usec per message,   0.0034 usec per 8-byte item

 hello from rdinp, dbg=            0
   
   
  ****************************************  
     *************************************  
     **                                 **  
     **     ######  ######   ##         **  
     **    #######  ##   ##  ##         **  
     **   ##        ######   ##         **  
     **   ##        ##       ##         **  
     **    #######  ##       #######    **  
     **     ######  ##       #######    **  
     **                                 **  
     *************************************  
  ****************************************  
   
  CPL was written by                  
   
  Jochen Autschbach               
  SUNY Buffalo                  
   
  Original development of CPL took     
  place in the research group of       
  Tom Ziegler                 
  University of Calgary          
  Alberta, Canada              
   
  Further developments done by 
  JA's research group at SUNY Buffalo 
   
  Please cite this work using       
  some or all of Refs. [1-4]        
   
  Refs. [1,2]: original implementation    
  Ref. [3]: NBO analysis, 
  Ref. [4]: hybrid functionals and rewrite
  Recommended references: [2,4]       
   
  Nonrelativistic code for the       
  DSO term and a few other things     
  based on the Dickson & Ziegler      
  program, Refs. [5,6]            
   
  References: 
  =========== 
   
  [1] J. Autschbach and T. Ziegler,      
      J. Chem. Phys. 113 (2000), 936     
   
  [2] J. Autschbach and T. Ziegler,      
      J. Chem. Phys. 113 (2000), 9410    
   
  [3] J. Autschbach,                     
      J. Chem. Phys. 128 (2008), 164112  
   
  [4] J. Autschbach,                     
      J. Chem. Phys. 129 (2008), 094105  
   
  [5] R. M. Dickson and T. Ziegler,      
      J. Phys. Chem. 100 (1996), 5286    
   
  [6] J. Khandogin and T. Ziegler,       
      Spectrochim. Acta A55 (1999), 607  
   
  ****************************************  
   



                                        ***********************************
                                        *   J O B  I N F O R M A T I O N  *
                                        ***********************************
  



 ===============================
 General information from TAPE21
 ===============================
  
  TITLE:      *** adf ***                                       
 JOB ID:       905052883
  NONLXC:     OPTX PBEc                                         
  SYMMETRY:   NOSYM                                             
   
  IOPREL:       0
  ------>     non-rel. (Re MOs)



 ==========================================
 Nuclear Coordinates and internal numbering
 ==========================================
  
  O  (  1):       3.3815     -0.4910      0.0409
  O  (  2):       1.5187      1.2981     -0.0361
  O  (  3):       1.0946     -0.9055     -0.8631
  P  (  4):       2.3064      0.2040     -0.9707
  C  (  5):       0.4067      0.7233      0.7051
  C  (  6):      -0.1143     -0.3803     -0.2586
  C  (  7):       0.9313      0.1731      2.0229
  C  (  8):      -0.5866      1.8382      0.9614
  C  (  9):      -0.9864      0.1696     -1.3778
  C  ( 10):      -0.8154     -1.5278      0.4399
  C  ( 11):       4.7690     -0.5328     -0.3563
  C  ( 12):       5.6150      0.2634      0.6573
  C  ( 13):       5.4820     -0.3106      2.0665
  C  ( 14):       5.1412      1.7170      0.6578
  C  ( 15):       5.1437     -1.9895     -0.5334
  C  ( 16):       7.0802      0.2289      0.2206
  H  ( 17):       0.1077     -0.1582      2.6578
  H  ( 18):       1.6184     -0.6581      1.8677
  H  ( 19):       1.4664      0.9674      2.5459
  H  ( 20):      -0.8548      2.3561      0.0417
  H  ( 21):      -1.4951      1.4380      1.4171
  H  ( 22):      -0.1539      2.5629      1.6531
  H  ( 23):      -1.9608      0.4854     -1.0019
  H  ( 24):      -0.5119      1.0183     -1.8738
  H  ( 25):      -1.1441     -0.6167     -2.1176
  H  ( 26):      -1.6920     -1.1630      0.9803
  H  ( 27):      -1.1542     -2.2552     -0.2995
  H  ( 28):      -0.1540     -2.0318      1.1429
  H  ( 29):       4.4954     -2.4437     -1.2847
  H  ( 30):       5.0210     -2.5437      0.3987
  H  ( 31):       6.1756     -2.0945     -0.8704
  H  ( 32):       4.8635     -0.0237     -1.3252
  H  ( 33):       5.7601      2.3144      1.3320
  H  ( 34):       4.1040      1.7986      0.9876
  H  ( 35):       5.2164      2.1553     -0.3422
  H  ( 36):       5.8705     -1.3298      2.1287
  H  ( 37):       4.4381     -0.3203      2.3864
  H  ( 38):       6.0483      0.3021      2.7727
  H  ( 39):       7.6718      0.8919      0.8568
  H  ( 40):       7.1955      0.5696     -0.8127
  H  ( 41):       7.5081     -0.7723      0.2996



 =======
 Numbers
 =======
  
  number of valence electrons:    136.00
 
  ---   AOs   ---          ---   MOs   ---
  ncor =      0            nocc =     68
  nval =   2397            nvir =   2042
  nbas =   2397            nmo  =   2110
  naos =   2397            nsot =   2110



 ===================
 Fragments and Basis
 ===================
  
   
  --------------------------
  ATOM TYPE:  O                                                 
  --------------------------
  === BASIS
    1S 4000.00     VALENCE
    1S  800.00     VALENCE
    1S  200.00     VALENCE
    1S   80.00     VALENCE
    1S   32.00     VALENCE
    1S   14.80     VALENCE
    1S    8.75     VALENCE
    1S    6.65     VALENCE
    2S    7.10     VALENCE
    2S    3.20     VALENCE
    2S    2.05     VALENCE
    2S    1.50     VALENCE
    2S    0.75     VALENCE
    2P   80.00     VALENCE
    2P   32.00     VALENCE
    2P   14.80     VALENCE
    2P    5.70     VALENCE
    2P    3.05     VALENCE
    2P    1.65     VALENCE
    2P    1.00     VALENCE
    3D   10.00     VALENCE
    3D    5.00     VALENCE
    3D    2.50     VALENCE
    3D    1.50     VALENCE
    4F    8.00     VALENCE
    4F    4.00     VALENCE
    4F    2.00     VALENCE
   
  --------------------------
  ATOM TYPE:  P                                                 
  --------------------------
  === BASIS
    1S 7500.00     VALENCE
    1S 1500.00     VALENCE
    1S  375.00     VALENCE
    1S  120.00     VALENCE
    1S   48.70     VALENCE
    1S   17.80     VALENCE
    1S   13.35     VALENCE
    2S   14.00     VALENCE
    2S    5.95     VALENCE
    2S    4.25     VALENCE
    3S    3.30     VALENCE
    3S    2.75     VALENCE
    3S    1.80     VALENCE
    3S    1.25     VALENCE
    2P  120.00     VALENCE
    2P   48.70     VALENCE
    2P   17.80     VALENCE
    2P   10.25     VALENCE
    2P    5.90     VALENCE
    2P    3.80     VALENCE
    3P    3.25     VALENCE
    3P    2.25     VALENCE
    3P    1.35     VALENCE
    3P    0.85     VALENCE
    3D   20.00     VALENCE
    3D    8.00     VALENCE
    3D    4.00     VALENCE
    3D    2.00     VALENCE
    3D    1.00     VALENCE
    4F   12.50     VALENCE
    4F    5.00     VALENCE
    4F    2.50     VALENCE
    4F    1.25     VALENCE
   
  --------------------------
  ATOM TYPE:  C                                                 
  --------------------------
  === BASIS
    1S 3000.00     VALENCE
    1S  600.00     VALENCE
    1S  150.00     VALENCE
    1S   60.00     VALENCE
    1S   24.00     VALENCE
    1S   11.40     VALENCE
    1S    6.60     VALENCE
    1S    4.85     VALENCE
    2S    5.90     VALENCE
    2S    2.55     VALENCE
    2S    1.65     VALENCE
    2S    1.16     VALENCE
    2P   60.00     VALENCE
    2P   24.00     VALENCE
    2P   11.40     VALENCE
    2P    5.15     VALENCE
    2P    2.40     VALENCE
    2P    1.30     VALENCE
    2P    0.78     VALENCE
    3D   10.00     VALENCE
    3D    5.00     VALENCE
    3D    2.50     VALENCE
    3D    1.50     VALENCE
    4F    8.00     VALENCE
    4F    4.00     VALENCE
    4F    2.00     VALENCE
   
  --------------------------
  ATOM TYPE:  H                                                 
  --------------------------
  === BASIS
    1S  500.00     VALENCE
    1S  100.00     VALENCE
    1S   25.00     VALENCE
    1S    7.50     VALENCE
    1S    3.30     VALENCE
    1S    2.00     VALENCE
    1S    1.40     VALENCE
    1S    1.00     VALENCE
    1S    0.71     VALENCE
    2P   10.00     VALENCE
    2P    4.00     VALENCE
    2P    2.00     VALENCE
    2P    1.00     VALENCE
    3D    5.00     VALENCE
    3D    2.50     VALENCE
    3D    1.50     VALENCE



 =================================
 TAPE10 info, TAPE21 compatibility
 =================================
  
  ---> TAPE10 will be created by CPL
 
  ---> TAPE21 present
 
  ---> Potential is already on TAPE10.
       It will not be re-calculated.



 ==========================================
 Settings for the NMR couplings computation
 ==========================================
  
  Compute...
  FC  Term    YES             (*     default *)
  SD  Term     NO             (*     default *)
  PSO Term     NO             (*     default *)
  DSO Term     NO             (*     default *)
 
  Max. no. of SCF iterations:                25
  Convergence criterion for SCF cycle:       0.000100000

  Nuclei numbering in the output refers to the
  INTERNAL atom ordering of ADF.
  This ordering is usually different from the order
  that has been specified in the ADF input that pro-
  duced the TAPE21 being used here.



 ===========================
 L I N E A R   S C A L I N G
 ===========================
  

 Overlap cut-off criterion AO matrix elements:     0.1000000000E-07





                                  ***********************************************
                                  *  NMR spin spin coupling tensor calculation  *
                                  ***********************************************
  

 Nuclear magnetogyric ratios / 1E7 radians/(s T):
 O  (  1):    -3.628
 O  (  2):    -3.628
 O  (  3):    -3.628
 P  (  4):    10.841
 C  (  5):     6.728
 C  (  6):     6.728
 C  (  7):     6.728
 C  (  8):     6.728
 C  (  9):     6.728
 C  ( 10):     6.728
 C  ( 11):     6.728
 C  ( 12):     6.728
 C  ( 13):     6.728
 C  ( 14):     6.728
 C  ( 15):     6.728
 C  ( 16):     6.728
 H  ( 17):    26.752
 H  ( 18):    26.752
 H  ( 19):    26.752
 H  ( 20):    26.752
 H  ( 21):    26.752
 H  ( 22):    26.752
 H  ( 23):    26.752
 H  ( 24):    26.752
 H  ( 25):    26.752
 H  ( 26):    26.752
 H  ( 27):    26.752
 H  ( 28):    26.752
 H  ( 29):    26.752
 H  ( 30):    26.752
 H  ( 31):    26.752
 H  ( 32):    26.752
 H  ( 33):    26.752
 H  ( 34):    26.752
 H  ( 35):    26.752
 H  ( 36):    26.752
 H  ( 37):    26.752
 H  ( 38):    26.752
 H  ( 39):    26.752
 H  ( 40):    26.752
 H  ( 41):    26.752

 Performing the following coupling computations:
 Nucleus   4 (P ) perturbing 
          11 (C ) responding
          32 (H ) responding



 =============================================
 Computation for perturbing ADF-GUI atom: P(2)
 =============================================
  
 
 *** running FC calculation
     computing
     ... matrix elements for perturbing nucleus   4
     ... matrix elements for responding nucleus  11
     ... matrix elements for responding nucleus  32
     ... ZSO / Fermi contact coupling constant(s) 



 ===================================
 CPKS routine for spin-spin coupling  ***  Version 05/08 (scalar)  ***
 ===================================
  
 Using new AO based algorithms for CPKS
    running CPKS for TRIPLET Operator
    using first order VWN potential for LDA perturbation
    Will use LDA kernel
 
 iter.  1 V(1) measure  0.5081834681465E+00
 iter.  2 V(1) measure  0.8096031240224E+00
        2        delta  0.3014196558759E+00
 iter.  3 V(1) measure  0.8113112705880E+00
        3        delta  0.1708146565607E-02
 iter.  4 V(1) measure  0.8113267029694E+00
        4        delta  0.1543238141166E-04
 *** convergence reached



                                                *******************
                                                *  R E S U L T S  *
                                                *******************
  



 ========================================
  Nucleus 4 (P) perturbing nucleus 11 (C)
 ========================================
  
 Internal CPL numbering of atoms:  P(4) perturbing  C(11)
 ADF-GUI atoms:  P(2) perturbing  C(23)
  
 ---------------------------------
   Cartesian Axis Representation  
 ---------------------------------

 ----- k (10^19 kg m-2 s-2 A-2) ----         ------------- j (hz) -------------

 fermi-contact contribution:             
  isotropic    k=      21.719                              j=      26.589
      21.719       0.000       0.000             26.589       0.000       0.000
       0.000      21.719       0.000              0.000      26.589       0.000
       0.000       0.000      21.719              0.000       0.000      26.589

 total calculated spin-spin coupling:    
  isotropic    k=      21.719                              j=      26.589
      21.719       0.000       0.000             26.589       0.000       0.000
       0.000      21.719       0.000              0.000      26.589       0.000
       0.000       0.000      21.719              0.000       0.000      26.589
 
 ---------------------------------
   Principal Axis Representation  
 ---------------------------------

 ----- k (10^19 kg m-2 s-2 A-2) ----         ------------- j (hz) -------------

 fermi-contact contribution:             
  isotropic    k=      21.719                              j=      26.589
      21.719       0.000       0.000             26.589       0.000       0.000
       0.000      21.719       0.000              0.000      26.589       0.000
       0.000       0.000      21.719              0.000       0.000      26.589

 total calculated spin-spin coupling:    
  isotropic    k=      21.719                              j=      26.589
      21.719       0.000       0.000             26.589       0.000       0.000
       0.000      21.719       0.000              0.000      26.589       0.000
       0.000       0.000      21.719              0.000       0.000      26.589
 
 Principal Axis System (u,v,w) expressed in Cartesians:
 (taken as eigenvectors of the symmetric part of the coupling tensor,
  sorted in ascending order of eigenvalues = principal values)
        u         v         w
        1.000     0.000     0.000
        0.000     1.000     0.000
        0.000     0.000     1.000



 ========================================
  Nucleus 4 (P) perturbing nucleus 32 (H)
 ========================================
  
 Internal CPL numbering of atoms:  P(4) perturbing  H(32)
 ADF-GUI atoms:  P(2) perturbing  H(31)
  
 ---------------------------------
   Cartesian Axis Representation  
 ---------------------------------

 ----- k (10^19 kg m-2 s-2 A-2) ----         ------------- j (hz) -------------

 fermi-contact contribution:             
  isotropic    k=       2.880                              j=      14.019
       2.880       0.000       0.000             14.019       0.000       0.000
       0.000       2.880       0.000              0.000      14.019       0.000
       0.000       0.000       2.880              0.000       0.000      14.019

 total calculated spin-spin coupling:    
  isotropic    k=       2.880                              j=      14.019
       2.880       0.000       0.000             14.019       0.000       0.000
       0.000       2.880       0.000              0.000      14.019       0.000
       0.000       0.000       2.880              0.000       0.000      14.019
 
 ---------------------------------
   Principal Axis Representation  
 ---------------------------------

 ----- k (10^19 kg m-2 s-2 A-2) ----         ------------- j (hz) -------------

 fermi-contact contribution:             
  isotropic    k=       2.880                              j=      14.019
       2.880       0.000       0.000             14.019       0.000       0.000
       0.000       2.880       0.000              0.000      14.019       0.000
       0.000       0.000       2.880              0.000       0.000      14.019

 total calculated spin-spin coupling:    
  isotropic    k=       2.880                              j=      14.019
       2.880       0.000       0.000             14.019       0.000       0.000
       0.000       2.880       0.000              0.000      14.019       0.000
       0.000       0.000       2.880              0.000       0.000      14.019
 
 Principal Axis System (u,v,w) expressed in Cartesians:
 (taken as eigenvectors of the symmetric part of the coupling tensor,
  sorted in ascending order of eigenvalues = principal values)
        u         v         w
        1.000     0.000     0.000
        0.000     1.000     0.000
        0.000     0.000     1.000
 *******************************************************************************

                             N M R   E X I T
 NORMAL TERMINATION



 =================
 Timing Statistics
 =================
  
 Total Used :                     CPU=     2618.26      System=        6.28     Elapsed=     2754.68

 Calls  Section                     ( Mean, Percentage )
 ---------------------------------------------------------------------------------------------------
     3  ><      ................      0.00    0.00             0.00    0.00             0.00    0.00
     1  GENPT   ................      7.50    0.29             0.28    4.46             8.94    0.32
     3  CALFC   ................    592.23   67.86             0.73   34.79           624.57   68.02
     1  FCPT1   ................    834.05   31.86             3.79   60.43           872.00   31.66
     1  FCCPL   ................      0.00    0.00             0.00    0.00             0.00    0.00
     1  JCOUPL  ................      0.00    0.00             0.00    0.00             0.00    0.00
     1  EXIT PROCEDURE .........      0.00    0.00             0.02    0.32             0.02    0.00


 Currently Open Files (EXIT00)
 ====================

 Unit    Access Format  Status   Type       Ident (file)
 -------------------------------------------------------
   3      SEQ    FORM   TRANSP  NORMAL      LOGFILE
                                          ( /home/milias/work/projects/open-collection/theoretical_chemistry/projects/nmr_diplomovky/derivaty_markerov/derivative_7_Ivan/ams/nonrel/nmr_opbe_qz4p-j_good_cosmo-chcl3/der7.nonrel_nmr_opbe_qz4p-j_good_cosmo-chcl3.logfile )
