 *******************************************************************************
 **                                                                           **
 **                              MOPAC v22.1.1                                **
 **                                                                           **
 *******************************************************************************
 **          Digital Object Identifier (DOI): 10.5281/zenodo.6511958          **
 **    Visit the DOI location for information on how to cite this program.    **
 *******************************************************************************

                              PM7 CALCULATION RESULTS

 *******************************************************************************
 *  CALCULATION DONE:                                Sun Jan 26 00:53:18 2025  *
 *  PM7        - The PM7 Hamiltonian to be used
 *  DOUBLET    - SPIN STATE DEFINED AS A DOUBLET
 *
 *
 *
 *                 CHARGE ON SYSTEM = 0
 *
 *
 *
 *  T=         - A TIME OF 172800.0 SECONDS REQUESTED
 *  DUMP=N     - RESTART FILE WRITTEN EVERY 7200.0 SECONDS REQUESTED
 *  LARGE      - EXPANDED OUTPUT TO BE PRINTED
 *******************************************************************************
 LARGE CHARGE=0 DOUBLET  PM7
 Bi on Quartz

   ATOM   CHEMICAL          X               Y               Z
  NUMBER   SYMBOL      (ANGSTROMS)     (ANGSTROMS)     (ANGSTROMS)
 
     1       O          8.70644000  *   1.87535000  *  -4.18560000  *
     2       O          1.46145000  *  -3.58968000  *  -0.00773000  *
     3       O         -0.87603000  *  -0.03981000  *  -0.53694000  *
     4       O          6.52223000  *  -4.05067000  *  -0.49742000  *
     5       O          4.13861000  *   0.44185000  *  -0.61607000  *
     6       O          1.27231000  *   3.54140000  *   0.03785000  *
     7       O          9.02607000  *  -0.57868000  *  -0.46489000  *
     8       O          6.22047000  *   4.69154000  *  -0.21848000  *
     9       O         -1.12986000  *  -4.00884000  *   0.11780000  *
    10       O         -3.38977000  *   0.01606000  *   0.25545000  *
    11       O          4.03801000  *  -3.86971000  *   0.21937000  *
    12       O          1.62342000  *   0.32483000  *   0.08414000  *
    13       O         -1.16753000  *   4.44111000  *   0.17219000  *
    14       O          6.41265000  *  -0.76395000  *  -0.29026000  *
    15       O          3.87828000  *   3.58485000  *   0.06807000  *
    16      Si          0.14331000  *  -3.92029000  *  -0.83218000  *
    17      Si         -2.39996000  *   0.00581000  *  -0.99040000  *
    18      Si          5.01713000  *  -4.22489000  *  -0.98299000  *
    19      Si          2.64170000  *   0.35288000  *  -1.14166000  *
    20      Si          0.10081000  *   4.25396000  *  -0.77007000  *
    21      Si          7.65514000  *  -0.60910000  *  -1.27163000  *
    22      Si          4.87210000  *   4.28374000  *  -0.95826000  *
    23      Si          2.63169000  *  -4.16239000  *   0.90256000  *
    24      Si          0.16245000  *   0.06343000  *   0.66063000  *
    25      Si          5.21518000  *  -0.02809000  *   0.45313000  *
    26      Si          2.56280000  *   3.73742000  *   0.94917000  *
    27       O          0.32003000  *  -5.26921000  *  -1.66719000  *
    28       O         -2.70889000  *  -1.22671000  *  -1.94990000  *
    29       O          4.77709000  *  -5.73698000  *  -1.41897000  *
    30       O          2.47601000  *  -0.90659000  *  -2.10545000  *
    31       O         -0.30855000  *   3.37059000  *  -2.02861000  *
    32       O          7.66268000  *  -1.79178000  *  -2.34170000  *
    33       O          5.20737000  *   3.28304000  *  -2.14789000  *
    34       O         -0.08374000  *  -2.81648000  *  -1.95581000  *
    35       O         -2.64847000  *   1.27111000  *  -1.92418000  *
    36       O          4.72719000  *  -3.25496000  *  -2.20957000  *
    37       O          2.36831000  *   1.59255000  *  -2.10249000  *
    38       O          7.51150000  *   0.70332000  *  -2.17070000  *
    39       O          2.44214000  *  -5.73271000  *   1.08250000  *
    40      Si          0.31002000  *  -5.68639000  *  -3.20844000  *
    41      Si         -2.84147000  *  -1.44724000  *  -3.52367000  *
    42      Si          2.40343000  *  -1.13329000  *  -3.68646000  *
    43      Si         -0.33825000  *   3.24283000  *  -3.61612000  *
    44      Si          7.51811000  *  -1.91921000  *  -3.92518000  *
    45      Si          5.12773000  *   3.01292000  *  -3.71413000  *
    46       O          0.05134000  *  -4.30616000  *  -3.96778000  *
    47       O         -2.87365000  *   0.04437000  *  -4.09939000  *
    48       O          4.26146000  *  -4.44458000  *  -4.47329000  *
    49       O          2.38312000  *   0.34742000  *  -4.27893000  *
    50       O         -0.49892000  *   4.68895000  *  -4.26070000  *
    51       O          7.44870000  *  -0.40458000  *  -4.41995000  *
    52       O          5.59175000  *   4.31362000  *  -4.50474000  *
    53       O         -1.53611000  *  -2.20343000  *  -4.02619000  *
    54       O         -4.18852000  *   2.29307000  *  -3.77590000  *
    55       O          3.68836000  *  -1.93032000  *  -4.17427000  *
    56       O          1.01199000  *   2.57213000  *  -4.11512000  *
    57       O          8.78999000  *  -2.65351000  *  -4.53714000  *
    58       O          6.08557000  *   1.79917000  *  -4.08225000  *
    59      Si         -0.13188000  *  -2.77796000  *  -3.54829000  *
    60      Si         -2.82679000  *   1.52166000  *  -3.48870000  *
    61      Si          4.71671000  *  -3.08050000  *  -3.79207000  *
    62      Si          2.34441000  *   1.82480000  *  -3.67997000  *
    63      Si          7.43429000  *   1.03434000  *  -3.73151000  *
    64       O          1.07091000  *  -1.89707000  *  -4.08817000  *
    65       O         -1.57355000  *   2.33236000  *  -4.03648000  *
    66       O          6.17367000  *  -2.68472000  *  -4.29226000  *
    67       O          3.63497000  *   2.64217000  *  -4.11397000  *
    68       H         -4.80966000  *   2.45459000  *  -4.35026000  *
    69       H          9.26645000  *   2.03617000  *  -4.81980000  *
    70       H          9.67919000  *  -1.04336000  *  -0.14992000  *
    71       H          6.99784000  *   4.42853000  *   0.04269000  *
    72       H         -1.79990000  *  -3.58350000  *   0.45241000  *
    73       H         -3.79449000  *  -0.45878000  *   0.84907000  *
    74       O          0.59396000  *   5.68086000  *  -1.27460000  *
    75       O          4.18654000  *   5.58909000  *  -1.55851000  *
    76       O          2.57007000  *  -3.46576000  *   2.33169000  *
    77       O          0.14965000  *  -1.29228000  *   1.49183000  *
    78       O         -0.24554000  *   1.27385000  *   1.60941000  *
    79       O          4.53700000  *  -1.03667000  *   1.47913000  *
    80       O          5.76333000  *   1.23507000  *   1.25070000  *
    81       O          2.57232000  *   2.63953000  *   2.10110000  *
    82       O          2.53727000  *   5.18221000  *   1.61630000  *
    83       H          4.19601000  *  -6.36160000  *  -1.53655000  *
    84       H          2.27955000  *  -6.48079000  *   0.68779000  *
    85       O          1.71840000  *  -6.29646000  *  -3.62717000  *
    86       O         -0.87353000  *  -6.70975000  *  -3.49829000  *
    87       H         -4.07965000  *  -2.17533000  *  -3.83367000  *
    88       H          4.36858000  *  -5.29867000  *  -4.50008000  *
    89       H         -0.18903000  *   5.49170000  *  -4.29765000  *
    90       H          5.46293000  *   5.15606000  *  -4.62913000  *
    91       H          9.32367000  *  -2.71436000  *  -5.21037000  *
    92       H         -1.87664000  *   4.07343000  *   0.49423000  *
    93       H          7.35381000  *  -4.13281000  *  -0.70592000  *
    94       H          1.12040000  *   6.10631000  *  -1.80715000  *
    95       H          6.21752000  *   1.96534000  *   1.20505000  *
    96       H          2.50223000  *   6.03145000  *   1.47611000  *
    97       H          2.78052000  *   1.83162000  *   2.31456000  *
    98       H         -0.29919000  *  -1.79997000  *   2.02330000  *
    99       H         -0.72599000  *   1.98300000  *   1.69690000  *
   100       H          2.32905000  *  -2.76833000  *   2.77589000  *
   101       H         -1.37271000  *  -7.33342000  *  -3.17637000  *
   102       H          3.72088000  *   5.91687000  *  -2.20473000  *
   103       H          2.39737000  *  -6.76264000  *  -3.37569000  *
   104       H          4.65999000  *  -1.55028000  *   2.15924000  *
   105      Bi          2.66177000  *  -0.65801000  *  -7.53640000  *
 


          CARTESIAN COORDINATES 

    NO.       ATOM           X           Y           Z

     1         O          8.7064      1.8754     -4.1856
     2         O          1.4615     -3.5897     -0.0077
     3         O         -0.8760     -0.0398     -0.5369
     4         O          6.5222     -4.0507     -0.4974
     5         O          4.1386      0.4419     -0.6161
     6         O          1.2723      3.5414      0.0379
     7         O          9.0261     -0.5787     -0.4649
     8         O          6.2205      4.6915     -0.2185
     9         O         -1.1299     -4.0088      0.1178
    10         O         -3.3898      0.0161      0.2555
    11         O          4.0380     -3.8697      0.2194
    12         O          1.6234      0.3248      0.0841
    13         O         -1.1675      4.4411      0.1722
    14         O          6.4127     -0.7640     -0.2903
    15         O          3.8783      3.5848      0.0681
    16        Si          0.1433     -3.9203     -0.8322
    17        Si         -2.4000      0.0058     -0.9904
    18        Si          5.0171     -4.2249     -0.9830
    19        Si          2.6417      0.3529     -1.1417
    20        Si          0.1008      4.2540     -0.7701
    21        Si          7.6551     -0.6091     -1.2716
    22        Si          4.8721      4.2837     -0.9583
    23        Si          2.6317     -4.1624      0.9026
    24        Si          0.1625      0.0634      0.6606
    25        Si          5.2152     -0.0281      0.4531
    26        Si          2.5628      3.7374      0.9492
    27         O          0.3200     -5.2692     -1.6672
    28         O         -2.7089     -1.2267     -1.9499
    29         O          4.7771     -5.7370     -1.4190
    30         O          2.4760     -0.9066     -2.1054
    31         O         -0.3086      3.3706     -2.0286
    32         O          7.6627     -1.7918     -2.3417
    33         O          5.2074      3.2830     -2.1479
    34         O         -0.0837     -2.8165     -1.9558
    35         O         -2.6485      1.2711     -1.9242
    36         O          4.7272     -3.2550     -2.2096
    37         O          2.3683      1.5925     -2.1025
    38         O          7.5115      0.7033     -2.1707
    39         O          2.4421     -5.7327      1.0825
    40        Si          0.3100     -5.6864     -3.2084
    41        Si         -2.8415     -1.4472     -3.5237
    42        Si          2.4034     -1.1333     -3.6865
    43        Si         -0.3383      3.2428     -3.6161
    44        Si          7.5181     -1.9192     -3.9252
    45        Si          5.1277      3.0129     -3.7141
    46         O          0.0513     -4.3062     -3.9678
    47         O         -2.8737      0.0444     -4.0994
    48         O          4.2615     -4.4446     -4.4733
    49         O          2.3831      0.3474     -4.2789
    50         O         -0.4989      4.6890     -4.2607
    51         O          7.4487     -0.4046     -4.4200
    52         O          5.5918      4.3136     -4.5047
    53         O         -1.5361     -2.2034     -4.0262
    54         O         -4.1885      2.2931     -3.7759
    55         O          3.6884     -1.9303     -4.1743
    56         O          1.0120      2.5721     -4.1151
    57         O          8.7900     -2.6535     -4.5371
    58         O          6.0856      1.7992     -4.0823
    59        Si         -0.1319     -2.7780     -3.5483
    60        Si         -2.8268      1.5217     -3.4887
    61        Si          4.7167     -3.0805     -3.7921
    62        Si          2.3444      1.8248     -3.6800
    63        Si          7.4343      1.0343     -3.7315
    64         O          1.0709     -1.8971     -4.0882
    65         O         -1.5736      2.3324     -4.0365
    66         O          6.1737     -2.6847     -4.2923
    67         O          3.6350      2.6422     -4.1140
    68         H         -4.8097      2.4546     -4.3503
    69         H          9.2665      2.0362     -4.8198
    70         H          9.6792     -1.0434     -0.1499
    71         H          6.9978      4.4285      0.0427
    72         H         -1.7999     -3.5835      0.4524
    73         H         -3.7945     -0.4588      0.8491
    74         O          0.5940      5.6809     -1.2746
    75         O          4.1865      5.5891     -1.5585
    76         O          2.5701     -3.4658      2.3317
    77         O          0.1497     -1.2923      1.4918
    78         O         -0.2455      1.2738      1.6094
    79         O          4.5370     -1.0367      1.4791
    80         O          5.7633      1.2351      1.2507
    81         O          2.5723      2.6395      2.1011
    82         O          2.5373      5.1822      1.6163
    83         H          4.1960     -6.3616     -1.5366
    84         H          2.2795     -6.4808      0.6878
    85         O          1.7184     -6.2965     -3.6272
    86         O         -0.8735     -6.7097     -3.4983
    87         H         -4.0796     -2.1753     -3.8337
    88         H          4.3686     -5.2987     -4.5001
    89         H         -0.1890      5.4917     -4.2976
    90         H          5.4629      5.1561     -4.6291
    91         H          9.3237     -2.7144     -5.2104
    92         H         -1.8766      4.0734      0.4942
    93         H          7.3538     -4.1328     -0.7059
    94         H          1.1204      6.1063     -1.8072
    95         H          6.2175      1.9653      1.2050
    96         H          2.5022      6.0315      1.4761
    97         H          2.7805      1.8316      2.3146
    98         H         -0.2992     -1.8000      2.0233
    99         H         -0.7260      1.9830      1.6969
   100         H          2.3291     -2.7683      2.7759
   101         H         -1.3727     -7.3334     -3.1764
   102         H          3.7209      5.9169     -2.2047
   103         H          2.3974     -6.7626     -3.3757
   104         H          4.6600     -1.5503      2.1592
   105        Bi          2.6618     -0.6580     -7.5364

 General Reference for PM7:
 "Optimization of Parameters for Semiempirical Methods VI: More Modifications to the 
 NDDO Approximations and Re-optimization of Parameters", J. J. P. Stewart, J. Mol. Mod., 1:32, 19 (2013)
 https://link.springer.com/article/10.1007/s00894-012-1667-x

           Empirical Formula: H26 O56 Si22 Bi  =   105 atoms



      MOLECULAR POINT GROUP   :   C1  


 DOUBLET STATE CALCULATION


          UHF CALCULATION, NO. OF ALPHA ELECTRONS =  228
                           NO. OF BETA  ELECTRONS =  227

          Geometry optimization using L-BFGS
 CYCLE:     1 TIME:   5.598 TIME LEFT:  2.00D  GRAD.:   403.673 HEAT: -4832.515
 CYCLE:     2 TIME:   0.340 TIME LEFT:  2.00D  GRAD.:   398.057 HEAT: -4834.134
 CYCLE:     3 TIME:   0.459 TIME LEFT:  2.00D  GRAD.:   111.698 HEAT: -4903.039
 CYCLE:     4 TIME:   0.375 TIME LEFT:  2.00D  GRAD.:   398.139 HEAT: -4834.141
 CYCLE:     5 TIME:   0.406 TIME LEFT:  2.00D  GRAD.:   111.710 HEAT: -4903.051
 CYCLE:     6 TIME:   0.402 TIME LEFT:  2.00D  GRAD.:   100.501 HEAT: -4911.383
 CYCLE:     7 TIME:   0.502 TIME LEFT:  2.00D  GRAD.:   131.616 HEAT: -4932.087
 CYCLE:     8 TIME:   0.396 TIME LEFT:  2.00D  GRAD.:   189.690 HEAT: -4932.592
 CYCLE:     9 TIME:   0.393 TIME LEFT:  2.00D  GRAD.:    58.300 HEAT: -4942.416
 CYCLE:    10 TIME:   0.376 TIME LEFT:  2.00D  GRAD.:    39.619 HEAT: -4944.965
 CYCLE:    11 TIME:   0.404 TIME LEFT:  2.00D  GRAD.:    50.914 HEAT: -4949.252
 CYCLE:    12 TIME:   0.407 TIME LEFT:  2.00D  GRAD.:    52.133 HEAT: -4953.382
 CYCLE:    13 TIME:   0.480 TIME LEFT:  2.00D  GRAD.:   131.590 HEAT: -4954.718
 CYCLE:    14 TIME:   0.407 TIME LEFT:  2.00D  GRAD.:    39.384 HEAT: -4961.011
 CYCLE:    15 TIME:   0.384 TIME LEFT:  2.00D  GRAD.:    35.282 HEAT: -4962.808
 CYCLE:    16 TIME:   0.393 TIME LEFT:  2.00D  GRAD.:    79.188 HEAT: -4966.527
 CYCLE:    17 TIME:   0.408 TIME LEFT:  2.00D  GRAD.:    74.610 HEAT: -4969.325
 CYCLE:    18 TIME:   0.391 TIME LEFT:  2.00D  GRAD.:    42.487 HEAT: -4971.879
 CYCLE:    19 TIME:   0.407 TIME LEFT:  2.00D  GRAD.:    40.904 HEAT: -4976.066
 CYCLE:    20 TIME:   0.406 TIME LEFT:  2.00D  GRAD.:    57.171 HEAT: -4978.795
 CYCLE:    21 TIME:   0.421 TIME LEFT:  2.00D  GRAD.:    46.337 HEAT: -4982.828
 CYCLE:    22 TIME:   0.413 TIME LEFT:  2.00D  GRAD.:    63.403 HEAT: -4985.490
 CYCLE:    23 TIME:   0.370 TIME LEFT:  2.00D  GRAD.:    38.981 HEAT: -4987.770
 CYCLE:    24 TIME:   0.380 TIME LEFT:  2.00D  GRAD.:    34.698 HEAT: -4989.583
 CYCLE:    25 TIME:   0.407 TIME LEFT:  2.00D  GRAD.:    48.233 HEAT: -4991.296
 CYCLE:    26 TIME:   0.387 TIME LEFT:  2.00D  GRAD.:    47.107 HEAT: -4993.230
 CYCLE:    27 TIME:   0.385 TIME LEFT:  2.00D  GRAD.:    34.522 HEAT: -4995.051
 CYCLE:    28 TIME:   0.401 TIME LEFT:  2.00D  GRAD.:    33.882 HEAT: -4996.494
 CYCLE:    29 TIME:   0.411 TIME LEFT:  2.00D  GRAD.:    32.133 HEAT: -4997.761
 CYCLE:    30 TIME:   0.406 TIME LEFT:  2.00D  GRAD.:    32.888 HEAT: -4999.534
 CYCLE:    31 TIME:   0.399 TIME LEFT:  2.00D  GRAD.:    54.429 HEAT: -5000.817
 CYCLE:    32 TIME:   0.370 TIME LEFT:  2.00D  GRAD.:    26.568 HEAT: -5002.140
 CYCLE:    33 TIME:   0.377 TIME LEFT:  2.00D  GRAD.:    23.908 HEAT: -5002.925
 CYCLE:    34 TIME:   0.403 TIME LEFT:  2.00D  GRAD.:    35.606 HEAT: -5004.039
 CYCLE:    35 TIME:   0.375 TIME LEFT:  2.00D  GRAD.:    42.507 HEAT: -5004.870
 CYCLE:    36 TIME:   0.355 TIME LEFT:  2.00D  GRAD.:    27.179 HEAT: -5005.851
 CYCLE:    37 TIME:   0.401 TIME LEFT:  2.00D  GRAD.:    25.513 HEAT: -5006.662
 CYCLE:    38 TIME:   0.407 TIME LEFT:  2.00D  GRAD.:    29.851 HEAT: -5007.267
 CYCLE:    39 TIME:   0.392 TIME LEFT:  2.00D  GRAD.:    29.486 HEAT: -5008.170
 CYCLE:    40 TIME:   0.378 TIME LEFT:  2.00D  GRAD.:    28.439 HEAT: -5009.237
 CYCLE:    41 TIME:   0.400 TIME LEFT:  2.00D  GRAD.:    26.326 HEAT: -5010.109
 CYCLE:    42 TIME:   0.408 TIME LEFT:  2.00D  GRAD.:    30.942 HEAT: -5010.573
 CYCLE:    43 TIME:   0.360 TIME LEFT:  2.00D  GRAD.:    21.305 HEAT: -5011.183
 CYCLE:    44 TIME:   0.408 TIME LEFT:  2.00D  GRAD.:    23.797 HEAT: -5012.064
 CYCLE:    45 TIME:   0.405 TIME LEFT:  2.00D  GRAD.:    27.930 HEAT: -5012.660
 CYCLE:    46 TIME:   0.425 TIME LEFT:  2.00D  GRAD.:    30.886 HEAT: -5013.389
 CYCLE:    47 TIME:   0.420 TIME LEFT:  2.00D  GRAD.:    33.018 HEAT: -5014.060
 CYCLE:    48 TIME:   0.376 TIME LEFT:  2.00D  GRAD.:    22.175 HEAT: -5014.694
 CYCLE:    49 TIME:   0.427 TIME LEFT:  2.00D  GRAD.:    22.737 HEAT: -5015.382
 CYCLE:    50 TIME:   0.383 TIME LEFT:  2.00D  GRAD.:    29.907 HEAT: -5016.066
 CYCLE:    51 TIME:   0.400 TIME LEFT:  2.00D  GRAD.:    39.340 HEAT: -5016.957
 CYCLE:    52 TIME:   0.415 TIME LEFT:  2.00D  GRAD.:    39.372 HEAT: -5017.664
 CYCLE:    53 TIME:   0.408 TIME LEFT:  2.00D  GRAD.:    50.972 HEAT: -5018.064
 CYCLE:    54 TIME:   0.390 TIME LEFT:  2.00D  GRAD.:    23.968 HEAT: -5019.170
 CYCLE:    55 TIME:   0.416 TIME LEFT:  2.00D  GRAD.:    22.471 HEAT: -5019.615
 CYCLE:    56 TIME:   0.342 TIME LEFT:  2.00D  GRAD.:    24.191 HEAT: -5020.164
 CYCLE:    57 TIME:   0.455 TIME LEFT:  2.00D  GRAD.:    28.451 HEAT: -5020.624
 CYCLE:    58 TIME:   0.394 TIME LEFT:  2.00D  GRAD.:    19.556 HEAT: -5020.882
 CYCLE:    59 TIME:   0.401 TIME LEFT:  2.00D  GRAD.:    15.975 HEAT: -5021.147
 CYCLE:    60 TIME:   0.333 TIME LEFT:  2.00D  GRAD.:    17.902 HEAT: -5021.645
 CYCLE:    61 TIME:   0.382 TIME LEFT:  2.00D  GRAD.:    23.333 HEAT: -5022.057
 CYCLE:    62 TIME:   0.383 TIME LEFT:  2.00D  GRAD.:    17.200 HEAT: -5022.510
 CYCLE:    63 TIME:   0.371 TIME LEFT:  2.00D  GRAD.:    16.097 HEAT: -5022.870
 CYCLE:    64 TIME:   0.391 TIME LEFT:  2.00D  GRAD.:    16.567 HEAT: -5023.160
 CYCLE:    65 TIME:   0.424 TIME LEFT:  2.00D  GRAD.:    35.523 HEAT: -5023.237
 CYCLE:    66 TIME:   0.401 TIME LEFT:  2.00D  GRAD.:    15.557 HEAT: -5023.602
 CYCLE:    67 TIME:   0.381 TIME LEFT:  2.00D  GRAD.:    11.240 HEAT: -5023.805
 CYCLE:    68 TIME:   0.360 TIME LEFT:  2.00D  GRAD.:    14.460 HEAT: -5024.133
 CYCLE:    69 TIME:   0.423 TIME LEFT:  2.00D  GRAD.:    24.386 HEAT: -5024.334
 CYCLE:    70 TIME:   0.358 TIME LEFT:  2.00D  GRAD.:    12.429 HEAT: -5024.613
 CYCLE:    71 TIME:   0.393 TIME LEFT:  2.00D  GRAD.:    12.963 HEAT: -5024.818
 CYCLE:    72 TIME:   0.378 TIME LEFT:  2.00D  GRAD.:    17.891 HEAT: -5025.031
 CYCLE:    73 TIME:   0.353 TIME LEFT:  2.00D  GRAD.:   119.496 HEAT: -5025.036
 CYCLE:    74 TIME:   0.389 TIME LEFT:  2.00D  GRAD.:    52.149 HEAT: -5024.999
 CYCLE:    75 TIME:   0.375 TIME LEFT:  2.00D  GRAD.:    17.452 HEAT: -5024.916
 CYCLE:    76 TIME:   0.356 TIME LEFT:  2.00D  GRAD.:    15.494 HEAT: -5025.335
 CYCLE:    77 TIME:   0.384 TIME LEFT:  2.00D  GRAD.:    28.215 HEAT: -5025.412
 CYCLE:    78 TIME:   0.382 TIME LEFT:  2.00D  GRAD.:    15.066 HEAT: -5025.677
 CYCLE:    79 TIME:   0.361 TIME LEFT:  2.00D  GRAD.:    10.814 HEAT: -5025.828
 CYCLE:    80 TIME:   0.389 TIME LEFT:  2.00D  GRAD.:    14.594 HEAT: -5026.159
 CYCLE:    81 TIME:   0.393 TIME LEFT:  2.00D  GRAD.:    25.665 HEAT: -5026.374
 CYCLE:    82 TIME:   0.343 TIME LEFT:  2.00D  GRAD.:    14.184 HEAT: -5026.620
 CYCLE:    83 TIME:   0.391 TIME LEFT:  2.00D  GRAD.:    12.615 HEAT: -5026.778
 CYCLE:    84 TIME:   0.393 TIME LEFT:  2.00D  GRAD.:    15.086 HEAT: -5026.946
 CYCLE:    85 TIME:   0.394 TIME LEFT:  2.00D  GRAD.:    18.918 HEAT: -5027.101
 CYCLE:    86 TIME:   0.374 TIME LEFT:  2.00D  GRAD.:    14.540 HEAT: -5027.324
 CYCLE:    87 TIME:   0.384 TIME LEFT:  2.00D  GRAD.:    12.393 HEAT: -5027.499
 CYCLE:    88 TIME:   0.370 TIME LEFT:  2.00D  GRAD.:    13.449 HEAT: -5027.708
 CYCLE:    89 TIME:   0.407 TIME LEFT:  2.00D  GRAD.:    18.970 HEAT: -5027.826
 CYCLE:    90 TIME:   0.363 TIME LEFT:  2.00D  GRAD.:    14.590 HEAT: -5028.031
 CYCLE:    91 TIME:   0.384 TIME LEFT:  2.00D  GRAD.:    12.468 HEAT: -5028.178
 CYCLE:    92 TIME:   0.377 TIME LEFT:  2.00D  GRAD.:    13.425 HEAT: -5028.334
 CYCLE:    93 TIME:   0.380 TIME LEFT:  2.00D  GRAD.:    11.413 HEAT: -5028.487
 CYCLE:    94 TIME:   0.388 TIME LEFT:  2.00D  GRAD.:     9.655 HEAT: -5028.632
 CYCLE:    95 TIME:   0.388 TIME LEFT:  2.00D  GRAD.:    10.056 HEAT: -5028.739
 CYCLE:    96 TIME:   0.378 TIME LEFT:  2.00D  GRAD.:     8.835 HEAT: -5028.855
 CYCLE:    97 TIME:   0.375 TIME LEFT:  2.00D  GRAD.:    12.127 HEAT: -5028.999
 CYCLE:    98 TIME:   0.352 TIME LEFT:  2.00D  GRAD.:    15.803 HEAT: -5029.083
 CYCLE:    99 TIME:   0.421 TIME LEFT:  2.00D  GRAD.:    18.761 HEAT: -5029.071
 CYCLE:   100 TIME:   0.380 TIME LEFT:  2.00D  GRAD.:    44.801 HEAT: -5029.085
 CYCLE:   101 TIME:   0.428 TIME LEFT:  2.00D  GRAD.:    38.225 HEAT: -5028.830
 CYCLE:   102 TIME:   0.405 TIME LEFT:  2.00D  GRAD.:    34.669 HEAT: -5029.251
 CYCLE:   103 TIME:   0.370 TIME LEFT:  2.00D  GRAD.:    12.354 HEAT: -5029.443
 CYCLE:   104 TIME:   0.344 TIME LEFT:  2.00D  GRAD.:    10.535 HEAT: -5029.477
 CYCLE:   105 TIME:   0.379 TIME LEFT:  2.00D  GRAD.:    11.268 HEAT: -5029.528
 CYCLE:   106 TIME:   0.377 TIME LEFT:  2.00D  GRAD.:    14.766 HEAT: -5029.590
 CYCLE:   107 TIME:   0.336 TIME LEFT:  2.00D  GRAD.:    15.771 HEAT: -5029.665
 CYCLE:   108 TIME:   0.383 TIME LEFT:  2.00D  GRAD.:    16.412 HEAT: -5029.736
 CYCLE:   109 TIME:   0.364 TIME LEFT:  2.00D  GRAD.:    11.384 HEAT: -5029.772
 CYCLE:   110 TIME:   0.365 TIME LEFT:  2.00D  GRAD.:    81.756 HEAT: -5029.798
 CYCLE:   111 TIME:   0.330 TIME LEFT:  2.00D  GRAD.:    95.943 HEAT: -5029.802
 CYCLE:   112 TIME:   0.383 TIME LEFT:  2.00D  GRAD.:    20.303 HEAT: -5029.532
 CYCLE:   113 TIME:   0.379 TIME LEFT:  2.00D  GRAD.:    11.329 HEAT: -5029.807
 CYCLE:   114 TIME:   0.399 TIME LEFT:  2.00D  GRAD.:    14.639 HEAT: -5029.858
 CYCLE:   115 TIME:   0.357 TIME LEFT:  2.00D  GRAD.:    21.819 HEAT: -5029.878
 CYCLE:   116 TIME:   0.350 TIME LEFT:  2.00D  GRAD.:     9.693 HEAT: -5030.015
 CYCLE:   117 TIME:   0.330 TIME LEFT:  2.00D  GRAD.:    11.182 HEAT: -5030.059
 CYCLE:   118 TIME:   0.391 TIME LEFT:  2.00D  GRAD.:    14.280 HEAT: -5030.131
 CYCLE:   119 TIME:   0.369 TIME LEFT:  2.00D  GRAD.:    93.607 HEAT: -5030.146
 CYCLE:   120 TIME:   0.423 TIME LEFT:  2.00D  GRAD.:    21.581 HEAT: -5030.122
 CYCLE:   121 TIME:   0.380 TIME LEFT:  2.00D  GRAD.:    22.755 HEAT: -5030.256
 CYCLE:   122 TIME:   0.358 TIME LEFT:  2.00D  GRAD.:    28.494 HEAT: -5030.276
 CYCLE:   123 TIME:   0.365 TIME LEFT:  2.00D  GRAD.:    21.453 HEAT: -5030.380
 CYCLE:   124 TIME:   0.383 TIME LEFT:  2.00D  GRAD.:    41.690 HEAT: -5030.099
 CYCLE:   125 TIME:   0.375 TIME LEFT:  2.00D  GRAD.:    19.336 HEAT: -5030.471
 CYCLE:   126 TIME:   0.394 TIME LEFT:  2.00D  GRAD.:    15.490 HEAT: -5030.564
 CYCLE:   127 TIME:   0.356 TIME LEFT:  2.00D  GRAD.:    13.933 HEAT: -5030.629
 CYCLE:   128 TIME:   0.369 TIME LEFT:  2.00D  GRAD.:    14.736 HEAT: -5030.717
 CYCLE:   129 TIME:   0.351 TIME LEFT:  2.00D  GRAD.:     8.848 HEAT: -5030.806
 CYCLE:   130 TIME:   0.339 TIME LEFT:  2.00D  GRAD.:    11.381 HEAT: -5030.847
 CYCLE:   131 TIME:   0.349 TIME LEFT:  2.00D  GRAD.:    11.786 HEAT: -5030.882
 CYCLE:   132 TIME:   0.380 TIME LEFT:  2.00D  GRAD.:    11.121 HEAT: -5030.924
 CYCLE:   133 TIME:   0.363 TIME LEFT:  2.00D  GRAD.:    21.946 HEAT: -5030.995
 CYCLE:   134 TIME:   0.351 TIME LEFT:  2.00D  GRAD.:    37.178 HEAT: -5030.965
 CYCLE:   135 TIME:   0.354 TIME LEFT:  2.00D  GRAD.:    10.617 HEAT: -5031.023
 CYCLE:   136 TIME:   0.341 TIME LEFT:  2.00D  GRAD.:     8.891 HEAT: -5031.043
 CYCLE:   137 TIME:   0.380 TIME LEFT:  2.00D  GRAD.:    14.322 HEAT: -5031.098
 CYCLE:   138 TIME:   0.379 TIME LEFT:  2.00D  GRAD.:    26.455 HEAT: -5031.108
 CYCLE:   139 TIME:   0.358 TIME LEFT:  2.00D  GRAD.:    19.558 HEAT: -5031.228
 CYCLE:   140 TIME:   0.380 TIME LEFT:  2.00D  GRAD.:    11.667 HEAT: -5031.303
 CYCLE:   141 TIME:   0.350 TIME LEFT:  2.00D  GRAD.:     9.102 HEAT: -5031.331
 CYCLE:   142 TIME:   0.357 TIME LEFT:  2.00D  GRAD.:     8.801 HEAT: -5031.387
 CYCLE:   143 TIME:   0.391 TIME LEFT:  2.00D  GRAD.:     9.426 HEAT: -5031.432
 CYCLE:   144 TIME:   0.371 TIME LEFT:  2.00D  GRAD.:    11.810 HEAT: -5031.471
 CYCLE:   145 TIME:   0.360 TIME LEFT:  2.00D  GRAD.:     9.501 HEAT: -5031.513
 CYCLE:   146 TIME:   0.329 TIME LEFT:  2.00D  GRAD.:     8.458 HEAT: -5031.579
 CYCLE:   147 TIME:   0.342 TIME LEFT:  2.00D  GRAD.:     7.240 HEAT: -5031.612
 CYCLE:   148 TIME:   0.365 TIME LEFT:  2.00D  GRAD.:    10.120 HEAT: -5031.641
 CYCLE:   149 TIME:   0.346 TIME LEFT:  2.00D  GRAD.:     6.597 HEAT: -5031.673
 CYCLE:   150 TIME:   0.350 TIME LEFT:  2.00D  GRAD.:     8.099 HEAT: -5031.714
 CYCLE:   151 TIME:   0.364 TIME LEFT:  2.00D  GRAD.:     7.893 HEAT: -5031.729
 CYCLE:   152 TIME:   0.391 TIME LEFT:  2.00D  GRAD.:    11.018 HEAT: -5031.754
 CYCLE:   153 TIME:   0.362 TIME LEFT:  2.00D  GRAD.:     7.066 HEAT: -5031.793
 CYCLE:   154 TIME:   0.330 TIME LEFT:  2.00D  GRAD.:     7.539 HEAT: -5031.829
 CYCLE:   155 TIME:   0.346 TIME LEFT:  2.00D  GRAD.:     7.832 HEAT: -5031.848
 CYCLE:   156 TIME:   0.360 TIME LEFT:  2.00D  GRAD.:     9.352 HEAT: -5031.868
 CYCLE:   157 TIME:   0.362 TIME LEFT:  2.00D  GRAD.:     7.217 HEAT: -5031.893
 CYCLE:   158 TIME:   0.336 TIME LEFT:  2.00D  GRAD.:     8.245 HEAT: -5031.939
 CYCLE:   159 TIME:   0.330 TIME LEFT:  2.00D  GRAD.:     6.886 HEAT: -5031.962
 CYCLE:   160 TIME:   0.358 TIME LEFT:  2.00D  GRAD.:     8.864 HEAT: -5031.989
 CYCLE:   161 TIME:   0.354 TIME LEFT:  2.00D  GRAD.:     7.344 HEAT: -5032.009
 CYCLE:   162 TIME:   0.371 TIME LEFT:  2.00D  GRAD.:     7.324 HEAT: -5032.030
 CYCLE:   163 TIME:   0.325 TIME LEFT:  2.00D  GRAD.:     7.784 HEAT: -5032.067
 CYCLE:   164 TIME:   0.376 TIME LEFT:  2.00D  GRAD.:    22.893 HEAT: -5032.076
 CYCLE:   165 TIME:   0.342 TIME LEFT:  2.00D  GRAD.:     6.726 HEAT: -5032.113
 CYCLE:   166 TIME:   0.366 TIME LEFT:  2.00D  GRAD.:     6.135 HEAT: -5032.123
 CYCLE:   167 TIME:   0.354 TIME LEFT:  2.00D  GRAD.:     6.302 HEAT: -5032.152
 CYCLE:   168 TIME:   0.369 TIME LEFT:  2.00D  GRAD.:     8.106 HEAT: -5032.170
 CYCLE:   169 TIME:   0.370 TIME LEFT:  2.00D  GRAD.:     6.986 HEAT: -5032.189
 CYCLE:   170 TIME:   0.361 TIME LEFT:  2.00D  GRAD.:    94.756 HEAT: -5032.184
 CYCLE:   171 TIME:   0.356 TIME LEFT:  2.00D  GRAD.:     7.674 HEAT: -5032.209
 CYCLE:   172 TIME:   0.342 TIME LEFT:  2.00D  GRAD.:     6.351 HEAT: -5032.215
 CYCLE:   173 TIME:   0.347 TIME LEFT:  2.00D  GRAD.:     8.769 HEAT: -5032.220
 CYCLE:   174 TIME:   0.338 TIME LEFT:  2.00D  GRAD.:     8.029 HEAT: -5032.234
 CYCLE:   175 TIME:   0.333 TIME LEFT:  2.00D  GRAD.:    44.919 HEAT: -5032.231
 CYCLE:   176 TIME:   0.358 TIME LEFT:  2.00D  GRAD.:    38.728 HEAT: -5032.311
 CYCLE:   177 TIME:   0.374 TIME LEFT:  2.00D  GRAD.:    10.557 HEAT: -5032.238
 CYCLE:   178 TIME:   0.350 TIME LEFT:  2.00D  GRAD.:    10.279 HEAT: -5032.251
 CYCLE:   179 TIME:   0.368 TIME LEFT:  2.00D  GRAD.:   153.286 HEAT: -5032.087
 CYCLE:   180 TIME:   0.388 TIME LEFT:  2.00D  GRAD.:    30.394 HEAT: -5031.856
 CYCLE:   181 TIME:   0.390 TIME LEFT:  2.00D  GRAD.:   283.331 HEAT: -5032.102
 CYCLE:   182 TIME:   0.367 TIME LEFT:  2.00D  GRAD.:    28.254 HEAT: -5031.911
 CYCLE:   183 TIME:   0.397 TIME LEFT:  2.00D  GRAD.:    33.595 HEAT: -5032.154
 CYCLE:   184 TIME:   0.378 TIME LEFT:  2.00D  GRAD.:    17.084 HEAT: -5032.266
 CYCLE:   185 TIME:   0.329 TIME LEFT:  2.00D  GRAD.:    34.458 HEAT: -5032.378
 CYCLE:   186 TIME:   0.362 TIME LEFT:  2.00D  GRAD.:    20.879 HEAT: -5032.061
 CYCLE:   187 TIME:   0.360 TIME LEFT:  2.00D  GRAD.:    22.047 HEAT: -5032.176
 CYCLE:   188 TIME:   0.397 TIME LEFT:  2.00D  GRAD.:    80.545 HEAT: -5032.246
 CYCLE:   189 TIME:   0.350 TIME LEFT:  2.00D  GRAD.:    23.624 HEAT: -5032.223
 CYCLE:   190 TIME:   0.344 TIME LEFT:  2.00D  GRAD.:    23.613 HEAT: -5032.213
 CYCLE:   191 TIME:   0.369 TIME LEFT:  2.00D  GRAD.:    24.030 HEAT: -5032.244
 CYCLE:   192 TIME:   0.387 TIME LEFT:  2.00D  GRAD.:    14.956 HEAT: -5032.310
 CYCLE:   193 TIME:   0.373 TIME LEFT:  2.00D  GRAD.:     8.020 HEAT: -5032.288
 CYCLE:   194 TIME:   0.376 TIME LEFT:  2.00D  GRAD.:    15.576 HEAT: -5032.260
 CYCLE:   195 TIME:   0.343 TIME LEFT:  2.00D  GRAD.:     5.829 HEAT: -5032.314
 CYCLE:   196 TIME:   0.336 TIME LEFT:  2.00D  GRAD.:     6.042 HEAT: -5032.322
 CYCLE:   197 TIME:   0.351 TIME LEFT:  2.00D  GRAD.:    17.320 HEAT: -5032.268
 CYCLE:   198 TIME:   0.360 TIME LEFT:  2.00D  GRAD.:     9.178 HEAT: -5032.321
 CYCLE:   199 TIME:   0.345 TIME LEFT:  2.00D  GRAD.:    79.908 HEAT: -5032.364
 CYCLE:   200 TIME:   0.346 TIME LEFT:  2.00D  GRAD.:    47.427 HEAT: -5032.240
 CYCLE:   201 TIME:   0.384 TIME LEFT:  2.00D  GRAD.:    16.048 HEAT: -5032.174
 CYCLE:   202 TIME:   0.386 TIME LEFT:  2.00D  GRAD.:     9.905 HEAT: -5032.305
 CYCLE:   203 TIME:   0.347 TIME LEFT:  2.00D  GRAD.:    10.543 HEAT: -5032.319
 CYCLE:   204 TIME:   0.344 TIME LEFT:  2.00D  GRAD.:    11.448 HEAT: -5032.435
 CYCLE:   205 TIME:   0.336 TIME LEFT:  2.00D  GRAD.:    10.672 HEAT: -5032.446
 CYCLE:   206 TIME:   0.347 TIME LEFT:  2.00D  GRAD.:     7.318 HEAT: -5032.354
 CYCLE:   207 TIME:   0.338 TIME LEFT:  2.00D  GRAD.:   459.126 HEAT: -5032.406
 CYCLE:   208 TIME:   0.339 TIME LEFT:  2.00D  GRAD.:     9.404 HEAT: -5032.460
 CYCLE:   209 TIME:   0.352 TIME LEFT:  2.00D  GRAD.:     6.906 HEAT: -5032.460
 CYCLE:   210 TIME:   0.346 TIME LEFT:  2.00D  GRAD.:     6.667 HEAT: -5032.463
 CYCLE:   211 TIME:   0.359 TIME LEFT:  2.00D  GRAD.:     9.810 HEAT: -5032.457
 CYCLE:   212 TIME:   0.340 TIME LEFT:  2.00D  GRAD.:     7.662 HEAT: -5032.468
 CYCLE:   213 TIME:   0.348 TIME LEFT:  2.00D  GRAD.:    39.838 HEAT: -5032.462
 CYCLE:   214 TIME:   0.347 TIME LEFT:  2.00D  GRAD.:     7.375 HEAT: -5032.475
 CYCLE:   215 TIME:   0.363 TIME LEFT:  2.00D  GRAD.:     8.475 HEAT: -5032.473
 CYCLE:   216 TIME:   0.359 TIME LEFT:  2.00D  GRAD.:     7.551 HEAT: -5032.482
 CYCLE:   217 TIME:   0.375 TIME LEFT:  2.00D  GRAD.:    11.988 HEAT: -5032.488
 CYCLE:   218 TIME:   0.337 TIME LEFT:  2.00D  GRAD.:     7.208 HEAT: -5032.496
 CYCLE:   219 TIME:   0.346 TIME LEFT:  2.00D  GRAD.:     8.785 HEAT: -5032.496
 CYCLE:   220 TIME:   0.343 TIME LEFT:  2.00D  GRAD.:     8.800 HEAT: -5032.502
 CYCLE:   221 TIME:   0.354 TIME LEFT:  2.00D  GRAD.:   433.536 HEAT: -5032.480
 CYCLE:   222 TIME:   0.358 TIME LEFT:  2.00D  GRAD.:   132.329 HEAT: -5032.426
 CYCLE:   223 TIME:   0.325 TIME LEFT:  2.00D  GRAD.:    21.038 HEAT: -5032.486
 CYCLE:   224 TIME:   0.353 TIME LEFT:  2.00D  GRAD.:     9.434 HEAT: -5032.495
 CYCLE:   225 TIME:   0.345 TIME LEFT:  2.00D  GRAD.:   141.812 HEAT: -5032.465
 CYCLE:   226 TIME:   0.361 TIME LEFT:  2.00D  GRAD.:    43.652 HEAT: -5032.487
 CYCLE:   227 TIME:   0.393 TIME LEFT:  2.00D  GRAD.:    14.785 HEAT: -5032.431
 CYCLE:   228 TIME:   0.370 TIME LEFT:  2.00D  GRAD.:     7.029 HEAT: -5032.501
 CYCLE:   229 TIME:   0.349 TIME LEFT:  2.00D  GRAD.:   188.017 HEAT: -5032.434
 CYCLE:   230 TIME:   0.353 TIME LEFT:  2.00D  GRAD.:     8.818 HEAT: -5032.496
 CYCLE:   231 TIME:   0.306 TIME LEFT:  2.00D  GRAD.:     8.495 HEAT: -5032.490
 CYCLE:   232 TIME:   0.338 TIME LEFT:  2.00D  GRAD.:     6.871 HEAT: -5032.503
 CYCLE:   233 TIME:   0.347 TIME LEFT:  2.00D  GRAD.:    13.825 HEAT: -5032.437
 CYCLE:   234 TIME:   0.349 TIME LEFT:  2.00D  GRAD.:     9.274 HEAT: -5032.494
 CYCLE:   235 TIME:   0.354 TIME LEFT:  2.00D  GRAD.:    12.039 HEAT: -5032.443
 CYCLE:   236 TIME:   0.306 TIME LEFT:  2.00D  GRAD.:     7.318 HEAT: -5032.508
 CYCLE:   237 TIME:   0.386 TIME LEFT:  2.00D  GRAD.:    13.599 HEAT: -5032.438
 CYCLE:   238 TIME:   0.396 TIME LEFT:  2.00D  GRAD.:    11.014 HEAT: -5032.486
 CYCLE:   239 TIME:   0.393 TIME LEFT:  2.00D  GRAD.:    13.290 HEAT: -5032.435
 CYCLE:   240 TIME:   0.352 TIME LEFT:  2.00D  GRAD.:    26.536 HEAT: -5032.432
 CYCLE:   241 TIME:   0.357 TIME LEFT:  2.00D  GRAD.:    12.816 HEAT: -5032.443
 CYCLE:   242 TIME:   0.371 TIME LEFT:  2.00D  GRAD.:     8.965 HEAT: -5032.518
 CYCLE:   243 TIME:   0.358 TIME LEFT:  2.00D  GRAD.:    58.213 HEAT: -5032.456
 CYCLE:   244 TIME:   0.368 TIME LEFT:  2.00D  GRAD.:     6.068 HEAT: -5032.518
 CYCLE:   245 TIME:   0.357 TIME LEFT:  2.00D  GRAD.:     8.097 HEAT: -5032.521
 CYCLE:   246 TIME:   0.355 TIME LEFT:  2.00D  GRAD.:     6.376 HEAT: -5032.535
 CYCLE:   247 TIME:   0.358 TIME LEFT:  2.00D  GRAD.:     9.790 HEAT: -5032.480
 CYCLE:   248 TIME:   0.300 TIME LEFT:  2.00D  GRAD.:     6.549 HEAT: -5032.526
 CYCLE:   249 TIME:   0.349 TIME LEFT:  2.00D  GRAD.:    14.539 HEAT: -5032.469
 CYCLE:   250 TIME:   0.370 TIME LEFT:  2.00D  GRAD.:     8.957 HEAT: -5032.539
 CYCLE:   251 TIME:   0.330 TIME LEFT:  2.00D  GRAD.:     8.737 HEAT: -5032.498
 CYCLE:   252 TIME:   0.331 TIME LEFT:  2.00D  GRAD.:     5.966 HEAT: -5032.552
 CYCLE:   253 TIME:   0.330 TIME LEFT:  2.00D  GRAD.:    12.016 HEAT: -5032.492
 CYCLE:   254 TIME:   0.365 TIME LEFT:  2.00D  GRAD.:     6.769 HEAT: -5032.570
 CYCLE:   255 TIME:   0.369 TIME LEFT:  2.00D  GRAD.:    10.549 HEAT: -5032.510
 CYCLE:   256 TIME:   0.346 TIME LEFT:  2.00D  GRAD.:     9.994 HEAT: -5032.572
 CYCLE:   257 TIME:   0.351 TIME LEFT:  2.00D  GRAD.:   244.418 HEAT: -5032.371
 CYCLE:   258 TIME:   0.352 TIME LEFT:  2.00D  GRAD.:    28.981 HEAT: -5032.192
 CYCLE:   259 TIME:   0.384 TIME LEFT:  2.00D  GRAD.:    19.758 HEAT: -5032.387
 CYCLE:   260 TIME:   0.332 TIME LEFT:  2.00D  GRAD.:    14.842 HEAT: -5032.506
 CYCLE:   261 TIME:   0.357 TIME LEFT:  2.00D  GRAD.:     6.570 HEAT: -5032.576
 CYCLE:   262 TIME:   0.329 TIME LEFT:  2.00D  GRAD.:     7.794 HEAT: -5032.585
 CYCLE:   263 TIME:   0.366 TIME LEFT:  2.00D  GRAD.:     6.481 HEAT: -5032.604
 CYCLE:   264 TIME:   0.350 TIME LEFT:  2.00D  GRAD.:     8.489 HEAT: -5032.600
 CYCLE:   265 TIME:   0.338 TIME LEFT:  2.00D  GRAD.:     6.346 HEAT: -5032.630
 CYCLE:   266 TIME:   0.352 TIME LEFT:  2.00D  GRAD.:     8.822 HEAT: -5032.522
 CYCLE:   267 TIME:   0.332 TIME LEFT:  2.00D  GRAD.:     6.169 HEAT: -5032.665
 CYCLE:   268 TIME:   0.344 TIME LEFT:  2.00D  GRAD.:     9.842 HEAT: -5032.609
 CYCLE:   269 TIME:   0.344 TIME LEFT:  2.00D  GRAD.:     5.970 HEAT: -5032.675
 CYCLE:   270 TIME:   0.328 TIME LEFT:  2.00D  GRAD.:     9.927 HEAT: -5032.536
 CYCLE:   271 TIME:   0.346 TIME LEFT:  2.00D  GRAD.:     6.259 HEAT: -5032.601
 CYCLE:   272 TIME:   0.342 TIME LEFT:  2.00D  GRAD.:    10.276 HEAT: -5032.619
 CYCLE:   273 TIME:   0.328 TIME LEFT:  2.00D  GRAD.:     5.966 HEAT: -5032.608
 CYCLE:   274 TIME:   0.340 TIME LEFT:  2.00D  GRAD.:     9.933 HEAT: -5032.548
 CYCLE:   275 TIME:   0.341 TIME LEFT:  2.00D  GRAD.:     6.182 HEAT: -5032.629
 CYCLE:   276 TIME:   0.391 TIME LEFT:  2.00D  GRAD.:    13.728 HEAT: -5032.519
 CYCLE:   277 TIME:   0.295 TIME LEFT:  2.00D  GRAD.:     6.711 HEAT: -5032.630
 CYCLE:   278 TIME:   0.337 TIME LEFT:  2.00D  GRAD.:     8.860 HEAT: -5032.591
 CYCLE:   279 TIME:   0.340 TIME LEFT:  2.00D  GRAD.:     5.523 HEAT: -5032.664
 CYCLE:   280 TIME:   0.371 TIME LEFT:  2.00D  GRAD.:    13.062 HEAT: -5032.540
 CYCLE:   281 TIME:   0.362 TIME LEFT:  2.00D  GRAD.:     6.792 HEAT: -5032.652
 CYCLE:   282 TIME:   0.340 TIME LEFT:  2.00D  GRAD.:     7.505 HEAT: -5032.628
 CYCLE:   283 TIME:   0.330 TIME LEFT:  2.00D  GRAD.:     3.692 HEAT: -5032.695
 CYCLE:   284 TIME:   0.333 TIME LEFT:  2.00D  GRAD.:     5.402 HEAT: -5032.693
 CYCLE:   285 TIME:   0.336 TIME LEFT:  2.00D  GRAD.:     5.415 HEAT: -5032.711
 CYCLE:   286 TIME:   0.348 TIME LEFT:  2.00D  GRAD.:     4.664 HEAT: -5032.763
 CYCLE:   287 TIME:   0.368 TIME LEFT:  2.00D  GRAD.:     5.880 HEAT: -5032.798
 CYCLE:   288 TIME:   0.339 TIME LEFT:  2.00D  GRAD.:     9.249 HEAT: -5032.830
 CYCLE:   289 TIME:   0.349 TIME LEFT:  2.00D  GRAD.:     9.055 HEAT: -5032.881
 CYCLE:   290 TIME:   0.352 TIME LEFT:  2.00D  GRAD.:     8.869 HEAT: -5032.936
 CYCLE:   291 TIME:   0.350 TIME LEFT:  2.00D  GRAD.:     9.510 HEAT: -5032.989
 CYCLE:   292 TIME:   0.376 TIME LEFT:  2.00D  GRAD.:    11.019 HEAT: -5033.036
 CYCLE:   293 TIME:   0.347 TIME LEFT:  2.00D  GRAD.:    13.661 HEAT: -5033.068
 CYCLE:   294 TIME:   0.362 TIME LEFT:  2.00D  GRAD.:    18.288 HEAT: -5033.033
 CYCLE:   295 TIME:   0.386 TIME LEFT:  2.00D  GRAD.:    12.956 HEAT: -5033.124
 CYCLE:   296 TIME:   0.403 TIME LEFT:  2.00D  GRAD.:    60.338 HEAT: -5032.105
 CYCLE:   297 TIME:   0.385 TIME LEFT:  2.00D  GRAD.:    73.585 HEAT: -5031.505
 CYCLE:   298 TIME:   0.387 TIME LEFT:  2.00D  GRAD.:    14.579 HEAT: -5033.047
 CYCLE:   299 TIME:   0.359 TIME LEFT:  2.00D  GRAD.:    10.565 HEAT: -5033.326
 CYCLE:   300 TIME:   0.399 TIME LEFT:  2.00D  GRAD.:    19.252 HEAT: -5032.720
 CYCLE:   301 TIME:   0.377 TIME LEFT:  2.00D  GRAD.:    47.446 HEAT: -5032.816
 CYCLE:   302 TIME:   0.434 TIME LEFT:  2.00D  GRAD.:  1148.446 HEAT: -4770.171
 CYCLE:   303 TIME:   0.401 TIME LEFT:  2.00D  GRAD.:   707.889 HEAT: -4900.548
 CYCLE:   304 TIME:   0.397 TIME LEFT:  2.00D  GRAD.:   595.360 HEAT: -4939.176
 CYCLE:   305 TIME:   0.388 TIME LEFT:  2.00D  GRAD.:   523.815 HEAT: -4982.379
 CYCLE:   306 TIME:   0.388 TIME LEFT:  2.00D  GRAD.:   336.503 HEAT: -4994.255
 CYCLE:   307 TIME:   0.381 TIME LEFT:  2.00D  GRAD.:   223.664 HEAT: -5018.228
 CYCLE:   308 TIME:   0.445 TIME LEFT:  2.00D  GRAD.:   433.887 HEAT: -4968.278
 CYCLE:   309 TIME:   0.418 TIME LEFT:  2.00D  GRAD.:   189.228 HEAT: -5020.960
 CYCLE:   310 TIME:   0.556 TIME LEFT:  2.00D  GRAD.:  2106.834 HEAT: -4031.327
 CYCLE:   311 TIME:   0.539 TIME LEFT:  2.00D  GRAD.:   592.705 HEAT: -4889.793
 CYCLE:   312 TIME:   0.405 TIME LEFT:  2.00D  GRAD.:   436.081 HEAT: -4960.690
 CYCLE:   313 TIME:   0.505 TIME LEFT:  2.00D  GRAD.:  1840.339 HEAT: -4329.474
 CYCLE:   314 TIME:   0.508 TIME LEFT:  2.00D  GRAD.:   843.542 HEAT: -4786.014
 CYCLE:   315 TIME:   0.437 TIME LEFT:  2.00D  GRAD.:   403.819 HEAT: -4965.570
 CYCLE:   316 TIME:   0.426 TIME LEFT:  2.00D  GRAD.:   243.154 HEAT: -4996.328
 CYCLE:   317 TIME:   0.418 TIME LEFT:  2.00D  GRAD.:   165.344 HEAT: -5018.457
 CYCLE:   318 TIME:   0.959 TIME LEFT:  2.00D  GRAD.:  2043.746 HEAT: -3969.132
 CYCLE:   319 TIME:   0.461 TIME LEFT:  2.00D  GRAD.:   998.749 HEAT: -4687.770
 CYCLE:   320 TIME:   0.422 TIME LEFT:  2.00D  GRAD.:   785.846 HEAT: -4815.149
 CYCLE:   321 TIME:   1.050 TIME LEFT:  2.00D  GRAD.:  1433.682 HEAT: -4550.659
 CYCLE:   322 TIME:   0.802 TIME LEFT:  2.00D  GRAD.:  1140.395 HEAT: -4514.765
 CYCLE:   323 TIME:   0.439 TIME LEFT:  2.00D  GRAD.:   722.497 HEAT: -4834.997
 CYCLE:   324 TIME:   0.591 TIME LEFT:  2.00D  GRAD.:   573.034 HEAT: -4911.917
 CYCLE:   325 TIME:   0.442 TIME LEFT:  2.00D  GRAD.:   378.853 HEAT: -4979.270
 CYCLE:   326 TIME:   0.435 TIME LEFT:  2.00D  GRAD.:   401.026 HEAT: -4969.661
 CYCLE:   327 TIME:   0.430 TIME LEFT:  2.00D  GRAD.:   187.428 HEAT: -5016.026
 CYCLE:   328 TIME:   0.397 TIME LEFT:  2.00D  GRAD.:   315.269 HEAT: -4985.740
 CYCLE:   329 TIME:   0.427 TIME LEFT:  2.00D  GRAD.:   220.397 HEAT: -5011.839


           HEAT OF FORMATION IS ESSENTIALLY STATIONARY


          CURRENT BEST VALUE OF HEAT OF FORMATION =  -5033.318739
 
 LARGE CHARGE=0 DOUBLET  PM7
 Bi on Quartz

  O     8.84014768 +1   1.87072565 +1  -4.42761341 +1
  O     1.03630446 +1  -4.13023532 +1   0.10655877 +1
  O    -1.36907589 +1  -0.28500380 +1  -0.06769872 +1
  O     6.08947935 +1  -3.83930290 +1  -0.33075727 +1
  O     3.82869226 +1  -0.08600592 +1  -0.11048929 +1
  O     1.34131073 +1   4.32066014 +1  -0.22628671 +1
  O     8.91223648 +1  -0.31731175 +1  -0.37621013 +1
  O     6.36639865 +1   3.41560949 +1  -0.09007546 +1
  O    -1.50871335 +1  -4.21755683 +1   0.12460045 +1
  O    -3.92210009 +1  -0.21806910 +1   0.13447197 +1
  O     3.60330407 +1  -4.23124133 +1  -0.19476620 +1
  O     1.26124189 +1  -0.10679229 +1  -0.06433393 +1
  O    -1.22830357 +1   3.97709805 +1  -0.03941911 +1
  O     6.40406613 +1  -0.18707499 +1  -0.35463347 +1
  O     3.93777585 +1   4.14861475 +1  -0.19432129 +1
 Si    -0.23197898 +1  -4.20107165 +1  -0.79943759 +1
 Si    -2.70585477 +1  -0.15988263 +1  -0.87055546 +1
 Si     4.86014731 +1  -4.49589581 +1  -1.09656443 +1
 Si     2.52432950 +1  -0.05886985 +1  -0.97142944 +1
 Si    -0.05334186 +1   4.58561116 +1  -0.90027813 +1
 Si     7.63763917 +1  -0.25297012 +1  -1.29901975 +1
 Si     5.31502718 +1   4.26469066 +1  -0.93210702 +1
 Si     2.42101942 +1  -4.18382271 +1   0.83176590 +1
 Si    -0.06405148 +1  -0.02302708 +1   0.77941905 +1
 Si     5.19617694 +1  -0.12400703 +1   0.65573268 +1
 Si     2.62313644 +1   4.16062848 +1   0.65676378 +1
  O    -0.12674778 +1  -5.55429685 +1  -1.68872368 +1
  O    -2.98363008 +1  -1.35352599 +1  -1.91664633 +1
  O     5.05341107 +1  -6.05979692 +1  -1.29120456 +1
  O     2.53620307 +1  -1.29789141 +1  -1.98211096 +1
  O    -0.04692559 +1   4.04989907 +1  -2.37337231 +1
  O     7.55072928 +1  -1.55551260 +1  -2.24986020 +1
  O     5.24902106 +1   3.72497784 +1  -2.39914480 +1
  O    -0.28295631 +1  -2.98441034 +1  -1.83596889 +1
  O    -2.67375044 +1   1.20617173 +1  -1.72899152 +1
  O     4.69999263 +1  -3.92226909 +1  -2.53991286 +1
  O     2.51128341 +1   1.27307380 +1  -1.87268996 +1
  O     7.70196068 +1   1.04469124 +1  -2.24744573 +1
  O     2.52498834 +1  -5.52135557 +1   1.67974876 +1
 Si     0.14854722 +1  -5.80390102 +1  -3.25728861 +1
 Si    -2.88193946 +1  -1.41941969 +1  -3.53511593 +1
 Si     2.37492292 +1  -1.40148487 +1  -3.58030382 +1
 Si    -0.09816970 +1   3.21398201 +1  -3.70085615 +1
 Si     7.37477544 +1  -1.71647936 +1  -3.85362483 +1
 Si     5.06853315 +1   3.11745599 +1  -3.83277274 +1
  O    -0.06214292 +1  -4.39240675 +1  -4.01457955 +1
  O    -2.77672085 +1   0.09626854 +1  -4.06640845 +1
  O     4.66800753 +1  -4.42195438 +1  -5.09886796 +1
  O     2.46713958 +1   0.07901500 +1  -4.20407667 +1
  O    -0.15473649 +1   4.18914310 +1  -4.94643728 +1
  O     7.33453271 +1  -0.23228335 +1  -4.47681086 +1
  O     5.08367787 +1   4.25257376 +1  -4.93526932 +1
  O    -1.60244301 +1  -2.25761932 +1  -3.92075811 +1
  O    -3.96503453 +1   2.33972557 +1  -3.68373310 +1
  O     3.50694758 +1  -2.32357537 +1  -4.13927760 +1
  O     1.17391441 +1   2.31268856 +1  -3.82305200 +1
  O     8.62755628 +1  -2.51565429 +1  -4.37184471 +1
  O     6.29453908 +1   2.16786776 +1  -4.10682503 +1
 Si    -0.24468073 +1  -2.89511980 +1  -3.44863385 +1
 Si    -2.67136117 +1   1.51731620 +1  -3.31138440 +1
 Si     4.72536506 +1  -3.30209847 +1  -3.98880231 +1
 Si     2.46292295 +1   1.51653745 +1  -3.45820752 +1
 Si     7.52059354 +1   1.23870602 +1  -3.84810352 +1
  O     0.97401372 +1  -2.02906458 +1  -3.90989624 +1
  O    -1.38785352 +1   2.31400679 +1  -3.70114862 +1
  O     6.06365272 +1  -2.49976815 +1  -4.17683991 +1
  O     3.72150805 +1   2.32092594 +1  -3.92515935 +1
  H    -4.04537705 +1   3.25641201 +1  -3.93825125 +1
  H     8.95849268 +1   2.68020541 +1  -4.92797884 +1
  H     9.83519626 +1  -0.40066026 +1  -0.61933876 +1
  H     7.04563300 +1   2.83451727 +1  -0.46089097 +1
  H    -2.25459152 +1  -3.60315643 +1   0.07009856 +1
  H    -3.97965112 +1   0.10882779 +1   1.03410565 +1
  O    -0.27569656 +1   6.16195226 +1  -0.95959570 +1
  O     5.79434296 +1   5.76904150 +1  -0.94399779 +1
  O     2.48438860 +1  -2.94355148 +1   1.81528602 +1
  O     0.00514823 +1  -1.04614656 +1   1.97909875 +1
  O    -0.23952010 +1   1.44743041 +1   1.36224185 +1
  O     5.17039684 +1  -1.38617870 +1   1.61258885 +1
  O     5.27207051 +1   1.15140291 +1   1.58478017 +1
  O     2.48775546 +1   2.83160748 +1   1.51418790 +1
  O     2.72250437 +1   5.36831254 +1   1.68459828 +1
  H     5.11712499 +1  -6.75072152 +1  -0.63470545 +1
  H     1.96772299 +1  -5.84550772 +1   2.38249014 +1
  O     1.61344366 +1  -6.37949900 +1  -3.46624819 +1
  O    -0.87153162 +1  -6.82670368 +1  -3.88226020 +1
  H    -4.04865386 +1  -2.07844716 +1  -4.11231392 +1
  H     3.93516302 +1  -5.02609939 +1  -5.27517085 +1
  H    -0.16285783 +1   5.14163035 +1  -4.96004540 +1
  H     4.32527994 +1   4.65288146 +1  -5.36597099 +1
  H     8.68207485 +1  -3.18678781 +1  -5.05475687 +1
  H    -1.31029608 +1   3.04845614 +1   0.24736897 +1
  H     6.77238706 +1  -3.27476954 +1  -0.71751348 +1
  H    -1.07689149 +1   6.65236136 +1  -0.78908424 +1
  H     5.60437486 +1   2.03495046 +1   1.34730283 +1
  H     2.19755332 +1   6.15926651 +1   1.75251766 +1
  H     3.17935335 +1   2.16615591 +1   1.65853019 +1
  H     0.48091740 +1  -1.89026972 +1   1.98968093 +1
  H     0.49478917 +1   2.02075693 +1   1.65175106 +1
  H     3.08908358 +1  -2.19150186 +1   1.80338106 +1
  H    -0.77191462 +1  -7.77786048 +1  -3.97425271 +1
  H     5.31106770 +1   6.57215943 +1  -0.79074091 +1
  H     2.39373783 +1  -6.14799735 +1  -2.94346584 +1
  H     5.40128351 +1  -2.29840099 +1   1.37771061 +1
 Bi     4.23694640 +1   0.22097570 +1  -7.19223920 +1
 
 

 -------------------------------------------------------------------------------
 LARGE CHARGE=0 DOUBLET  PM7
 Bi on Quartz



     HERBERTS TEST WAS SATISFIED IN BFGS                      
     SCF FIELD WAS ACHIEVED                                   


                              PM7 CALCULATION
                                                       MOPAC v22.1.1 Linux
                                                       Sun Jan 26 00:55:30 2025




          FINAL HEAT OF FORMATION =      -5033.31874 KCAL/MOL =  -21059.40560 KJ/MOL


          COSMO AREA              =        726.77 SQUARE ANGSTROMS
          COSMO VOLUME            =       1318.85 CUBIC ANGSTROMS

          GRADIENT NORM           =         10.56466          =       1.03101 PER ATOM
          IONIZATION POTENTIAL    =          7.396319 EV
          ALPHA SOMO LUMO (EV)    =         -7.462 -0.076
          BETA  SOMO LUMO (EV)    =         -7.396 -0.042
          NO. OF ALPHA ELECTRONS  =        228
          NO. OF BETA  ELECTRONS  =        227
          MOLECULAR WEIGHT        =       1749.0332         POINT GROUP:  C1  

          MOLECULAR DIMENSIONS (Angstroms)

            Atom       Atom       Distance
            H   102    H   101    15.90788
            H    70    H    68    14.48843
            H    84   Bi   105    10.41411


          SCF CALCULATIONS        =        331
 
          WALL-CLOCK TIME         =          2 MINUTES AND 11.327 SECONDS
          COMPUTATION TIME        =         13 MINUTES AND 6.118 SECONDS



       FINAL  POINT  AND  DERIVATIVES

   PARAMETER     ATOM    TYPE            VALUE        GRADIENT
      1          1  O    CARTESIAN X     8.840148      0.330512  KCAL/ANGSTROM
      2          1  O    CARTESIAN Y     1.870726     -0.163018  KCAL/ANGSTROM
      3          1  O    CARTESIAN Z    -4.427613     -0.143793  KCAL/ANGSTROM
      4          2  O    CARTESIAN X     1.036304      0.154949  KCAL/ANGSTROM
      5          2  O    CARTESIAN Y    -4.130235      0.087911  KCAL/ANGSTROM
      6          2  O    CARTESIAN Z     0.106559     -0.370700  KCAL/ANGSTROM
      7          3  O    CARTESIAN X    -1.369076     -0.605713  KCAL/ANGSTROM
      8          3  O    CARTESIAN Y    -0.285004     -0.235964  KCAL/ANGSTROM
      9          3  O    CARTESIAN Z    -0.067699     -0.207484  KCAL/ANGSTROM
     10          4  O    CARTESIAN X     6.089479     -0.108226  KCAL/ANGSTROM
     11          4  O    CARTESIAN Y    -3.839303     -0.164605  KCAL/ANGSTROM
     12          4  O    CARTESIAN Z    -0.330757     -0.151014  KCAL/ANGSTROM
     13          5  O    CARTESIAN X     3.828692      0.084921  KCAL/ANGSTROM
     14          5  O    CARTESIAN Y    -0.086006      0.185135  KCAL/ANGSTROM
     15          5  O    CARTESIAN Z    -0.110489     -0.284140  KCAL/ANGSTROM
     16          6  O    CARTESIAN X     1.341311      0.459401  KCAL/ANGSTROM
     17          6  O    CARTESIAN Y     4.320660     -0.208994  KCAL/ANGSTROM
     18          6  O    CARTESIAN Z    -0.226287      0.096685  KCAL/ANGSTROM
     19          7  O    CARTESIAN X     8.912236      0.011256  KCAL/ANGSTROM
     20          7  O    CARTESIAN Y    -0.317312      0.846743  KCAL/ANGSTROM
     21          7  O    CARTESIAN Z    -0.376210     -0.195053  KCAL/ANGSTROM
     22          8  O    CARTESIAN X     6.366399     -0.512529  KCAL/ANGSTROM
     23          8  O    CARTESIAN Y     3.415609      0.713491  KCAL/ANGSTROM
     24          8  O    CARTESIAN Z    -0.090075     -0.040843  KCAL/ANGSTROM
     25          9  O    CARTESIAN X    -1.508713      0.336106  KCAL/ANGSTROM
     26          9  O    CARTESIAN Y    -4.217557      0.428081  KCAL/ANGSTROM
     27          9  O    CARTESIAN Z     0.124600      0.292356  KCAL/ANGSTROM
     28         10  O    CARTESIAN X    -3.922100      0.402946  KCAL/ANGSTROM
     29         10  O    CARTESIAN Y    -0.218069     -0.348359  KCAL/ANGSTROM
     30         10  O    CARTESIAN Z     0.134472      0.027307  KCAL/ANGSTROM
     31         11  O    CARTESIAN X     3.603304      0.223713  KCAL/ANGSTROM
     32         11  O    CARTESIAN Y    -4.231241     -0.324003  KCAL/ANGSTROM
     33         11  O    CARTESIAN Z    -0.194766      0.149234  KCAL/ANGSTROM
     34         12  O    CARTESIAN X     1.261242      2.018082  KCAL/ANGSTROM
     35         12  O    CARTESIAN Y    -0.106792      2.713951  KCAL/ANGSTROM
     36         12  O    CARTESIAN Z    -0.064334      3.685147  KCAL/ANGSTROM
     37         13  O    CARTESIAN X    -1.228304     -0.480004  KCAL/ANGSTROM
     38         13  O    CARTESIAN Y     3.977098     -0.505885  KCAL/ANGSTROM
     39         13  O    CARTESIAN Z    -0.039419     -0.136630  KCAL/ANGSTROM
     40         14  O    CARTESIAN X     6.404066     -0.104042  KCAL/ANGSTROM
     41         14  O    CARTESIAN Y    -0.187075      0.955986  KCAL/ANGSTROM
     42         14  O    CARTESIAN Z    -0.354633      0.288258  KCAL/ANGSTROM
     43         15  O    CARTESIAN X     3.937776      0.250727  KCAL/ANGSTROM
     44         15  O    CARTESIAN Y     4.148615      1.027513  KCAL/ANGSTROM
     45         15  O    CARTESIAN Z    -0.194321      0.935850  KCAL/ANGSTROM
     46         16 Si    CARTESIAN X    -0.231979      0.299844  KCAL/ANGSTROM
     47         16 Si    CARTESIAN Y    -4.201072      0.096494  KCAL/ANGSTROM
     48         16 Si    CARTESIAN Z    -0.799438      0.271239  KCAL/ANGSTROM
     49         17 Si    CARTESIAN X    -2.705855      0.398221  KCAL/ANGSTROM
     50         17 Si    CARTESIAN Y    -0.159883      1.059435  KCAL/ANGSTROM
     51         17 Si    CARTESIAN Z    -0.870555     -0.002840  KCAL/ANGSTROM
     52         18 Si    CARTESIAN X     4.860147     -0.245896  KCAL/ANGSTROM
     53         18 Si    CARTESIAN Y    -4.495896     -0.050523  KCAL/ANGSTROM
     54         18 Si    CARTESIAN Z    -1.096564      0.050392  KCAL/ANGSTROM
     55         19 Si    CARTESIAN X     2.524330     -0.646600  KCAL/ANGSTROM
     56         19 Si    CARTESIAN Y    -0.058870     -1.422186  KCAL/ANGSTROM
     57         19 Si    CARTESIAN Z    -0.971429     -0.453790  KCAL/ANGSTROM
     58         20 Si    CARTESIAN X    -0.053342     -0.024619  KCAL/ANGSTROM
     59         20 Si    CARTESIAN Y     4.585611     -0.658842  KCAL/ANGSTROM
     60         20 Si    CARTESIAN Z    -0.900278     -1.468575  KCAL/ANGSTROM
     61         21 Si    CARTESIAN X     7.637639     -0.406591  KCAL/ANGSTROM
     62         21 Si    CARTESIAN Y    -0.252970     -0.680668  KCAL/ANGSTROM
     63         21 Si    CARTESIAN Z    -1.299020      0.104721  KCAL/ANGSTROM
     64         22 Si    CARTESIAN X     5.315027      0.545143  KCAL/ANGSTROM
     65         22 Si    CARTESIAN Y     4.264691     -1.034006  KCAL/ANGSTROM
     66         22 Si    CARTESIAN Z    -0.932107     -0.218014  KCAL/ANGSTROM
     67         23 Si    CARTESIAN X     2.421019     -0.110944  KCAL/ANGSTROM
     68         23 Si    CARTESIAN Y    -4.183823     -0.084295  KCAL/ANGSTROM
     69         23 Si    CARTESIAN Z     0.831766      0.156319  KCAL/ANGSTROM
     70         24 Si    CARTESIAN X    -0.064051     -0.862461  KCAL/ANGSTROM
     71         24 Si    CARTESIAN Y    -0.023027     -1.359148  KCAL/ANGSTROM
     72         24 Si    CARTESIAN Z     0.779419     -0.512561  KCAL/ANGSTROM
     73         25 Si    CARTESIAN X     5.196177      0.334133  KCAL/ANGSTROM
     74         25 Si    CARTESIAN Y    -0.124007     -0.782064  KCAL/ANGSTROM
     75         25 Si    CARTESIAN Z     0.655733      0.118617  KCAL/ANGSTROM
     76         26 Si    CARTESIAN X     2.623136      0.345170  KCAL/ANGSTROM
     77         26 Si    CARTESIAN Y     4.160628     -0.137817  KCAL/ANGSTROM
     78         26 Si    CARTESIAN Z     0.656764     -0.789662  KCAL/ANGSTROM
     79         27  O    CARTESIAN X    -0.126748     -0.290572  KCAL/ANGSTROM
     80         27  O    CARTESIAN Y    -5.554297      0.211294  KCAL/ANGSTROM
     81         27  O    CARTESIAN Z    -1.688724     -0.131945  KCAL/ANGSTROM
     82         28  O    CARTESIAN X    -2.983630     -0.497763  KCAL/ANGSTROM
     83         28  O    CARTESIAN Y    -1.353526      0.013015  KCAL/ANGSTROM
     84         28  O    CARTESIAN Z    -1.916646      0.102692  KCAL/ANGSTROM
     85         29  O    CARTESIAN X     5.053411      0.039402  KCAL/ANGSTROM
     86         29  O    CARTESIAN Y    -6.059797      0.041553  KCAL/ANGSTROM
     87         29  O    CARTESIAN Z    -1.291205     -0.003733  KCAL/ANGSTROM
     88         30  O    CARTESIAN X     2.536203     -0.080878  KCAL/ANGSTROM
     89         30  O    CARTESIAN Y    -1.297891      0.340726  KCAL/ANGSTROM
     90         30  O    CARTESIAN Z    -1.982111     -0.230564  KCAL/ANGSTROM
     91         31  O    CARTESIAN X    -0.046926     -0.089580  KCAL/ANGSTROM
     92         31  O    CARTESIAN Y     4.049899      0.760757  KCAL/ANGSTROM
     93         31  O    CARTESIAN Z    -2.373372      0.718140  KCAL/ANGSTROM
     94         32  O    CARTESIAN X     7.550729      0.135920  KCAL/ANGSTROM
     95         32  O    CARTESIAN Y    -1.555513      0.268842  KCAL/ANGSTROM
     96         32  O    CARTESIAN Z    -2.249860      0.041841  KCAL/ANGSTROM
     97         33  O    CARTESIAN X     5.249021      1.001114  KCAL/ANGSTROM
     98         33  O    CARTESIAN Y     3.724978      0.898962  KCAL/ANGSTROM
     99         33  O    CARTESIAN Z    -2.399145     -0.353533  KCAL/ANGSTROM
    100         34  O    CARTESIAN X    -0.282956     -0.336587  KCAL/ANGSTROM
    101         34  O    CARTESIAN Y    -2.984410     -0.079046  KCAL/ANGSTROM
    102         34  O    CARTESIAN Z    -1.835969     -0.253922  KCAL/ANGSTROM
    103         35  O    CARTESIAN X    -2.673750      0.435901  KCAL/ANGSTROM
    104         35  O    CARTESIAN Y     1.206172     -0.098086  KCAL/ANGSTROM
    105         35  O    CARTESIAN Z    -1.728992     -0.372361  KCAL/ANGSTROM
    106         36  O    CARTESIAN X     4.699993      0.160752  KCAL/ANGSTROM
    107         36  O    CARTESIAN Y    -3.922269     -0.143710  KCAL/ANGSTROM
    108         36  O    CARTESIAN Z    -2.539913      0.184386  KCAL/ANGSTROM
    109         37  O    CARTESIAN X     2.511283     -0.488764  KCAL/ANGSTROM
    110         37  O    CARTESIAN Y     1.273074     -0.345745  KCAL/ANGSTROM
    111         37  O    CARTESIAN Z    -1.872690      0.695332  KCAL/ANGSTROM
    112         38  O    CARTESIAN X     7.701961     -0.213994  KCAL/ANGSTROM
    113         38  O    CARTESIAN Y     1.044691     -0.083616  KCAL/ANGSTROM
    114         38  O    CARTESIAN Z    -2.247446      0.166578  KCAL/ANGSTROM
    115         39  O    CARTESIAN X     2.524988     -0.273330  KCAL/ANGSTROM
    116         39  O    CARTESIAN Y    -5.521356      0.179449  KCAL/ANGSTROM
    117         39  O    CARTESIAN Z     1.679749     -0.412505  KCAL/ANGSTROM
    118         40 Si    CARTESIAN X     0.148547      0.025255  KCAL/ANGSTROM
    119         40 Si    CARTESIAN Y    -5.803901      0.187519  KCAL/ANGSTROM
    120         40 Si    CARTESIAN Z    -3.257289      0.014958  KCAL/ANGSTROM
    121         41 Si    CARTESIAN X    -2.881939      0.258707  KCAL/ANGSTROM
    122         41 Si    CARTESIAN Y    -1.419420     -0.146476  KCAL/ANGSTROM
    123         41 Si    CARTESIAN Z    -3.535116     -0.236545  KCAL/ANGSTROM
    124         42 Si    CARTESIAN X     2.374923      0.728281  KCAL/ANGSTROM
    125         42 Si    CARTESIAN Y    -1.401485      0.019797  KCAL/ANGSTROM
    126         42 Si    CARTESIAN Z    -3.580304     -0.740457  KCAL/ANGSTROM
    127         43 Si    CARTESIAN X    -0.098170      0.109441  KCAL/ANGSTROM
    128         43 Si    CARTESIAN Y     3.213982      0.623824  KCAL/ANGSTROM
    129         43 Si    CARTESIAN Z    -3.700856     -0.165376  KCAL/ANGSTROM
    130         44 Si    CARTESIAN X     7.374775      0.065052  KCAL/ANGSTROM
    131         44 Si    CARTESIAN Y    -1.716479      0.193773  KCAL/ANGSTROM
    132         44 Si    CARTESIAN Z    -3.853625     -0.026771  KCAL/ANGSTROM
    133         45 Si    CARTESIAN X     5.068533      0.344390  KCAL/ANGSTROM
    134         45 Si    CARTESIAN Y     3.117456     -0.238859  KCAL/ANGSTROM
    135         45 Si    CARTESIAN Z    -3.832773      1.395639  KCAL/ANGSTROM
    136         46  O    CARTESIAN X    -0.062143      0.413198  KCAL/ANGSTROM
    137         46  O    CARTESIAN Y    -4.392407      0.266247  KCAL/ANGSTROM
    138         46  O    CARTESIAN Z    -4.014580     -0.264252  KCAL/ANGSTROM
    139         47  O    CARTESIAN X    -2.776721     -0.042008  KCAL/ANGSTROM
    140         47  O    CARTESIAN Y     0.096269      0.013171  KCAL/ANGSTROM
    141         47  O    CARTESIAN Z    -4.066408     -0.018706  KCAL/ANGSTROM
    142         48  O    CARTESIAN X     4.668008     -0.247519  KCAL/ANGSTROM
    143         48  O    CARTESIAN Y    -4.421954     -0.014347  KCAL/ANGSTROM
    144         48  O    CARTESIAN Z    -5.098868     -0.183230  KCAL/ANGSTROM
    145         49  O    CARTESIAN X     2.467140      0.288229  KCAL/ANGSTROM
    146         49  O    CARTESIAN Y     0.079015     -0.523081  KCAL/ANGSTROM
    147         49  O    CARTESIAN Z    -4.204077      0.252098  KCAL/ANGSTROM
    148         50  O    CARTESIAN X    -0.154736      0.366376  KCAL/ANGSTROM
    149         50  O    CARTESIAN Y     4.189143      0.846141  KCAL/ANGSTROM
    150         50  O    CARTESIAN Z    -4.946437     -0.008245  KCAL/ANGSTROM
    151         51  O    CARTESIAN X     7.334533      0.183391  KCAL/ANGSTROM
    152         51  O    CARTESIAN Y    -0.232283      0.045574  KCAL/ANGSTROM
    153         51  O    CARTESIAN Z    -4.476811     -0.436005  KCAL/ANGSTROM
    154         52  O    CARTESIAN X     5.083678     -0.434850  KCAL/ANGSTROM
    155         52  O    CARTESIAN Y     4.252574      0.094264  KCAL/ANGSTROM
    156         52  O    CARTESIAN Z    -4.935269      0.480692  KCAL/ANGSTROM
    157         53  O    CARTESIAN X    -1.602443     -0.223326  KCAL/ANGSTROM
    158         53  O    CARTESIAN Y    -2.257619     -0.136849  KCAL/ANGSTROM
    159         53  O    CARTESIAN Z    -3.920758     -0.042688  KCAL/ANGSTROM
    160         54  O    CARTESIAN X    -3.965035     -0.288699  KCAL/ANGSTROM
    161         54  O    CARTESIAN Y     2.339726      0.747477  KCAL/ANGSTROM
    162         54  O    CARTESIAN Z    -3.683733      0.193421  KCAL/ANGSTROM
    163         55  O    CARTESIAN X     3.506948      0.012077  KCAL/ANGSTROM
    164         55  O    CARTESIAN Y    -2.323575     -0.343988  KCAL/ANGSTROM
    165         55  O    CARTESIAN Z    -4.139278      0.096503  KCAL/ANGSTROM
    166         56  O    CARTESIAN X     1.173914      0.890153  KCAL/ANGSTROM
    167         56  O    CARTESIAN Y     2.312689     -0.977150  KCAL/ANGSTROM
    168         56  O    CARTESIAN Z    -3.823052      0.568175  KCAL/ANGSTROM
    169         57  O    CARTESIAN X     8.627556     -0.111613  KCAL/ANGSTROM
    170         57  O    CARTESIAN Y    -2.515654     -1.100149  KCAL/ANGSTROM
    171         57  O    CARTESIAN Z    -4.371845      0.534412  KCAL/ANGSTROM
    172         58  O    CARTESIAN X     6.294539      0.562522  KCAL/ANGSTROM
    173         58  O    CARTESIAN Y     2.167868      0.631897  KCAL/ANGSTROM
    174         58  O    CARTESIAN Z    -4.106825      0.926686  KCAL/ANGSTROM
    175         59 Si    CARTESIAN X    -0.244681      0.219889  KCAL/ANGSTROM
    176         59 Si    CARTESIAN Y    -2.895120      0.040740  KCAL/ANGSTROM
    177         59 Si    CARTESIAN Z    -3.448634      0.076248  KCAL/ANGSTROM
    178         60 Si    CARTESIAN X    -2.671361      1.586479  KCAL/ANGSTROM
    179         60 Si    CARTESIAN Y     1.517316      0.860983  KCAL/ANGSTROM
    180         60 Si    CARTESIAN Z    -3.311384     -0.824100  KCAL/ANGSTROM
    181         61 Si    CARTESIAN X     4.725365      0.437270  KCAL/ANGSTROM
    182         61 Si    CARTESIAN Y    -3.302098     -0.101067  KCAL/ANGSTROM
    183         61 Si    CARTESIAN Z    -3.988802     -0.042488  KCAL/ANGSTROM
    184         62 Si    CARTESIAN X     2.462923     -0.528191  KCAL/ANGSTROM
    185         62 Si    CARTESIAN Y     1.516537      0.616714  KCAL/ANGSTROM
    186         62 Si    CARTESIAN Z    -3.458208     -0.778990  KCAL/ANGSTROM
    187         63 Si    CARTESIAN X     7.520594     -0.470247  KCAL/ANGSTROM
    188         63 Si    CARTESIAN Y     1.238706      0.526643  KCAL/ANGSTROM
    189         63 Si    CARTESIAN Z    -3.848104     -0.004954  KCAL/ANGSTROM
    190         64  O    CARTESIAN X     0.974014     -0.442620  KCAL/ANGSTROM
    191         64  O    CARTESIAN Y    -2.029065      0.378014  KCAL/ANGSTROM
    192         64  O    CARTESIAN Z    -3.909896      0.349183  KCAL/ANGSTROM
    193         65  O    CARTESIAN X    -1.387854     -2.034523  KCAL/ANGSTROM
    194         65  O    CARTESIAN Y     2.314007     -1.062169  KCAL/ANGSTROM
    195         65  O    CARTESIAN Z    -3.701149     -0.008682  KCAL/ANGSTROM
    196         66  O    CARTESIAN X     6.063653      0.182102  KCAL/ANGSTROM
    197         66  O    CARTESIAN Y    -2.499768      0.132222  KCAL/ANGSTROM
    198         66  O    CARTESIAN Z    -4.176840     -0.047887  KCAL/ANGSTROM
    199         67  O    CARTESIAN X     3.721508     -0.348012  KCAL/ANGSTROM
    200         67  O    CARTESIAN Y     2.320926     -0.460549  KCAL/ANGSTROM
    201         67  O    CARTESIAN Z    -3.925159     -2.007811  KCAL/ANGSTROM
    202         68  H    CARTESIAN X    -4.045377      0.187115  KCAL/ANGSTROM
    203         68  H    CARTESIAN Y     3.256412     -0.937213  KCAL/ANGSTROM
    204         68  H    CARTESIAN Z    -3.938251      0.315543  KCAL/ANGSTROM
    205         69  H    CARTESIAN X     8.958493      0.256005  KCAL/ANGSTROM
    206         69  H    CARTESIAN Y     2.680205     -0.043052  KCAL/ANGSTROM
    207         69  H    CARTESIAN Z    -4.927979     -0.016330  KCAL/ANGSTROM
    208         70  H    CARTESIAN X     9.835196     -0.584269  KCAL/ANGSTROM
    209         70  H    CARTESIAN Y    -0.400660     -0.206711  KCAL/ANGSTROM
    210         70  H    CARTESIAN Z    -0.619339     -0.174097  KCAL/ANGSTROM
    211         71  H    CARTESIAN X     7.045633     -0.720495  KCAL/ANGSTROM
    212         71  H    CARTESIAN Y     2.834517      0.271410  KCAL/ANGSTROM
    213         71  H    CARTESIAN Z    -0.460891      0.976304  KCAL/ANGSTROM
    214         72  H    CARTESIAN X    -2.254592     -0.113280  KCAL/ANGSTROM
    215         72  H    CARTESIAN Y    -3.603156     -0.803971  KCAL/ANGSTROM
    216         72  H    CARTESIAN Z     0.070099      0.147215  KCAL/ANGSTROM
    217         73  H    CARTESIAN X    -3.979651      0.043321  KCAL/ANGSTROM
    218         73  H    CARTESIAN Y     0.108828     -0.729193  KCAL/ANGSTROM
    219         73  H    CARTESIAN Z     1.034106      0.698984  KCAL/ANGSTROM
    220         74  O    CARTESIAN X    -0.275697     -0.455450  KCAL/ANGSTROM
    221         74  O    CARTESIAN Y     6.161952     -0.294635  KCAL/ANGSTROM
    222         74  O    CARTESIAN Z    -0.959596     -0.336713  KCAL/ANGSTROM
    223         75  O    CARTESIAN X     5.794343     -2.270614  KCAL/ANGSTROM
    224         75  O    CARTESIAN Y     5.769042      0.173690  KCAL/ANGSTROM
    225         75  O    CARTESIAN Z    -0.943998      0.782716  KCAL/ANGSTROM
    226         76  O    CARTESIAN X     2.484389      0.597314  KCAL/ANGSTROM
    227         76  O    CARTESIAN Y    -2.943551      0.292487  KCAL/ANGSTROM
    228         76  O    CARTESIAN Z     1.815286     -0.114525  KCAL/ANGSTROM
    229         77  O    CARTESIAN X     0.005148      0.033342  KCAL/ANGSTROM
    230         77  O    CARTESIAN Y    -1.046147      0.115476  KCAL/ANGSTROM
    231         77  O    CARTESIAN Z     1.979099      0.287739  KCAL/ANGSTROM
    232         78  O    CARTESIAN X    -0.239520      0.743519  KCAL/ANGSTROM
    233         78  O    CARTESIAN Y     1.447430     -0.227954  KCAL/ANGSTROM
    234         78  O    CARTESIAN Z     1.362242     -1.143690  KCAL/ANGSTROM
    235         79  O    CARTESIAN X     5.170397     -0.416905  KCAL/ANGSTROM
    236         79  O    CARTESIAN Y    -1.386179      0.533182  KCAL/ANGSTROM
    237         79  O    CARTESIAN Z     1.612589     -0.286691  KCAL/ANGSTROM
    238         80  O    CARTESIAN X     5.272071     -0.027442  KCAL/ANGSTROM
    239         80  O    CARTESIAN Y     1.151403      0.137644  KCAL/ANGSTROM
    240         80  O    CARTESIAN Z     1.584780     -0.012479  KCAL/ANGSTROM
    241         81  O    CARTESIAN X     2.487755      0.040608  KCAL/ANGSTROM
    242         81  O    CARTESIAN Y     2.831607     -0.761207  KCAL/ANGSTROM
    243         81  O    CARTESIAN Z     1.514188     -0.712433  KCAL/ANGSTROM
    244         82  O    CARTESIAN X     2.722504      0.444683  KCAL/ANGSTROM
    245         82  O    CARTESIAN Y     5.368313      0.015524  KCAL/ANGSTROM
    246         82  O    CARTESIAN Z     1.684598     -0.217245  KCAL/ANGSTROM
    247         83  H    CARTESIAN X     5.117125      0.329963  KCAL/ANGSTROM
    248         83  H    CARTESIAN Y    -6.750722     -0.231959  KCAL/ANGSTROM
    249         83  H    CARTESIAN Z    -0.634705     -0.483457  KCAL/ANGSTROM
    250         84  H    CARTESIAN X     1.967723      0.109955  KCAL/ANGSTROM
    251         84  H    CARTESIAN Y    -5.845508     -0.309660  KCAL/ANGSTROM
    252         84  H    CARTESIAN Z     2.382490     -0.116787  KCAL/ANGSTROM
    253         85  O    CARTESIAN X     1.613444     -0.211882  KCAL/ANGSTROM
    254         85  O    CARTESIAN Y    -6.379499      0.170631  KCAL/ANGSTROM
    255         85  O    CARTESIAN Z    -3.466248      0.008666  KCAL/ANGSTROM
    256         86  O    CARTESIAN X    -0.871532      0.032231  KCAL/ANGSTROM
    257         86  O    CARTESIAN Y    -6.826704     -0.094956  KCAL/ANGSTROM
    258         86  O    CARTESIAN Z    -3.882260      0.262536  KCAL/ANGSTROM
    259         87  H    CARTESIAN X    -4.048654     -0.043431  KCAL/ANGSTROM
    260         87  H    CARTESIAN Y    -2.078447      0.223949  KCAL/ANGSTROM
    261         87  H    CARTESIAN Z    -4.112314     -0.141128  KCAL/ANGSTROM
    262         88  H    CARTESIAN X     3.935163      0.149896  KCAL/ANGSTROM
    263         88  H    CARTESIAN Y    -5.026099     -0.077940  KCAL/ANGSTROM
    264         88  H    CARTESIAN Z    -5.275171      0.079453  KCAL/ANGSTROM
    265         89  H    CARTESIAN X    -0.162858      0.002382  KCAL/ANGSTROM
    266         89  H    CARTESIAN Y     5.141630     -1.003865  KCAL/ANGSTROM
    267         89  H    CARTESIAN Z    -4.960045      0.387377  KCAL/ANGSTROM
    268         90  H    CARTESIAN X     4.325280      0.035683  KCAL/ANGSTROM
    269         90  H    CARTESIAN Y     4.652881     -0.099515  KCAL/ANGSTROM
    270         90  H    CARTESIAN Z    -5.365971      0.273617  KCAL/ANGSTROM
    271         91  H    CARTESIAN X     8.682075      0.130717  KCAL/ANGSTROM
    272         91  H    CARTESIAN Y    -3.186788     -0.104539  KCAL/ANGSTROM
    273         91  H    CARTESIAN Z    -5.054757     -0.067715  KCAL/ANGSTROM
    274         92  H    CARTESIAN X    -1.310296      0.986422  KCAL/ANGSTROM
    275         92  H    CARTESIAN Y     3.048456      0.674393  KCAL/ANGSTROM
    276         92  H    CARTESIAN Z     0.247369      0.524281  KCAL/ANGSTROM
    277         93  H    CARTESIAN X     6.772387     -0.119174  KCAL/ANGSTROM
    278         93  H    CARTESIAN Y    -3.274770     -0.062193  KCAL/ANGSTROM
    279         93  H    CARTESIAN Z    -0.717513     -0.020682  KCAL/ANGSTROM
    280         94  H    CARTESIAN X    -1.076891      0.299941  KCAL/ANGSTROM
    281         94  H    CARTESIAN Y     6.652361      0.270360  KCAL/ANGSTROM
    282         94  H    CARTESIAN Z    -0.789084     -0.337083  KCAL/ANGSTROM
    283         95  H    CARTESIAN X     5.604375     -0.274723  KCAL/ANGSTROM
    284         95  H    CARTESIAN Y     2.034950     -0.178535  KCAL/ANGSTROM
    285         95  H    CARTESIAN Z     1.347303     -0.487867  KCAL/ANGSTROM
    286         96  H    CARTESIAN X     2.197553      0.250574  KCAL/ANGSTROM
    287         96  H    CARTESIAN Y     6.159267     -0.391670  KCAL/ANGSTROM
    288         96  H    CARTESIAN Z     1.752518      0.255794  KCAL/ANGSTROM
    289         97  H    CARTESIAN X     3.179353      0.751900  KCAL/ANGSTROM
    290         97  H    CARTESIAN Y     2.166156      0.280296  KCAL/ANGSTROM
    291         97  H    CARTESIAN Z     1.658530      0.092646  KCAL/ANGSTROM
    292         98  H    CARTESIAN X     0.480917     -0.675376  KCAL/ANGSTROM
    293         98  H    CARTESIAN Y    -1.890270      1.099543  KCAL/ANGSTROM
    294         98  H    CARTESIAN Z     1.989681     -0.099278  KCAL/ANGSTROM
    295         99  H    CARTESIAN X     0.494789     -0.565140  KCAL/ANGSTROM
    296         99  H    CARTESIAN Y     2.020757      0.012296  KCAL/ANGSTROM
    297         99  H    CARTESIAN Z     1.651751      0.017500  KCAL/ANGSTROM
    298        100  H    CARTESIAN X     3.089084     -0.278986  KCAL/ANGSTROM
    299        100  H    CARTESIAN Y    -2.191502      0.009353  KCAL/ANGSTROM
    300        100  H    CARTESIAN Z     1.803381     -0.075738  KCAL/ANGSTROM
    301        101  H    CARTESIAN X    -0.771915      0.241721  KCAL/ANGSTROM
    302        101  H    CARTESIAN Y    -7.777860      0.102377  KCAL/ANGSTROM
    303        101  H    CARTESIAN Z    -3.974253      0.173632  KCAL/ANGSTROM
    304        102  H    CARTESIAN X     5.311068      0.820020  KCAL/ANGSTROM
    305        102  H    CARTESIAN Y     6.572159     -1.431862  KCAL/ANGSTROM
    306        102  H    CARTESIAN Z    -0.790741     -0.389824  KCAL/ANGSTROM
    307        103  H    CARTESIAN X     2.393738     -0.256246  KCAL/ANGSTROM
    308        103  H    CARTESIAN Y    -6.147997     -0.445751  KCAL/ANGSTROM
    309        103  H    CARTESIAN Z    -2.943466      0.128228  KCAL/ANGSTROM
    310        104  H    CARTESIAN X     5.401284     -0.657745  KCAL/ANGSTROM
    311        104  H    CARTESIAN Y    -2.298401      0.311710  KCAL/ANGSTROM
    312        104  H    CARTESIAN Z     1.377711      0.609462  KCAL/ANGSTROM
    313        105 Bi    CARTESIAN X     4.236946     -1.904983  KCAL/ANGSTROM
    314        105 Bi    CARTESIAN Y     0.220976      0.712793  KCAL/ANGSTROM
    315        105 Bi    CARTESIAN Z    -7.192239     -1.188646  KCAL/ANGSTROM




   ATOM   CHEMICAL          X               Y               Z
  NUMBER   SYMBOL      (ANGSTROMS)     (ANGSTROMS)     (ANGSTROMS)
 
     1       O          8.84014768  *   1.87072565  *  -4.42761341  *
     2       O          1.03630446  *  -4.13023532  *   0.10655877  *
     3       O         -1.36907589  *  -0.28500380  *  -0.06769872  *
     4       O          6.08947935  *  -3.83930290  *  -0.33075727  *
     5       O          3.82869226  *  -0.08600592  *  -0.11048929  *
     6       O          1.34131073  *   4.32066014  *  -0.22628671  *
     7       O          8.91223648  *  -0.31731175  *  -0.37621013  *
     8       O          6.36639865  *   3.41560949  *  -0.09007546  *
     9       O         -1.50871335  *  -4.21755683  *   0.12460045  *
    10       O         -3.92210009  *  -0.21806910  *   0.13447197  *
    11       O          3.60330407  *  -4.23124133  *  -0.19476620  *
    12       O          1.26124189  *  -0.10679229  *  -0.06433393  *
    13       O         -1.22830357  *   3.97709805  *  -0.03941911  *
    14       O          6.40406613  *  -0.18707499  *  -0.35463347  *
    15       O          3.93777585  *   4.14861475  *  -0.19432129  *
    16      Si         -0.23197898  *  -4.20107165  *  -0.79943759  *
    17      Si         -2.70585477  *  -0.15988263  *  -0.87055546  *
    18      Si          4.86014731  *  -4.49589581  *  -1.09656443  *
    19      Si          2.52432950  *  -0.05886985  *  -0.97142944  *
    20      Si         -0.05334186  *   4.58561116  *  -0.90027813  *
    21      Si          7.63763917  *  -0.25297012  *  -1.29901975  *
    22      Si          5.31502718  *   4.26469066  *  -0.93210702  *
    23      Si          2.42101942  *  -4.18382271  *   0.83176590  *
    24      Si         -0.06405148  *  -0.02302708  *   0.77941905  *
    25      Si          5.19617694  *  -0.12400703  *   0.65573268  *
    26      Si          2.62313644  *   4.16062848  *   0.65676378  *
    27       O         -0.12674778  *  -5.55429685  *  -1.68872368  *
    28       O         -2.98363008  *  -1.35352599  *  -1.91664633  *
    29       O          5.05341107  *  -6.05979692  *  -1.29120456  *
    30       O          2.53620307  *  -1.29789141  *  -1.98211096  *
    31       O         -0.04692559  *   4.04989907  *  -2.37337231  *
    32       O          7.55072928  *  -1.55551260  *  -2.24986020  *
    33       O          5.24902106  *   3.72497784  *  -2.39914480  *
    34       O         -0.28295631  *  -2.98441034  *  -1.83596889  *
    35       O         -2.67375044  *   1.20617173  *  -1.72899152  *
    36       O          4.69999263  *  -3.92226909  *  -2.53991286  *
    37       O          2.51128341  *   1.27307380  *  -1.87268996  *
    38       O          7.70196068  *   1.04469124  *  -2.24744573  *
    39       O          2.52498834  *  -5.52135557  *   1.67974876  *
    40      Si          0.14854722  *  -5.80390102  *  -3.25728861  *
    41      Si         -2.88193946  *  -1.41941969  *  -3.53511593  *
    42      Si          2.37492292  *  -1.40148487  *  -3.58030382  *
    43      Si         -0.09816970  *   3.21398201  *  -3.70085615  *
    44      Si          7.37477544  *  -1.71647936  *  -3.85362483  *
    45      Si          5.06853315  *   3.11745599  *  -3.83277274  *
    46       O         -0.06214292  *  -4.39240675  *  -4.01457955  *
    47       O         -2.77672085  *   0.09626854  *  -4.06640845  *
    48       O          4.66800753  *  -4.42195438  *  -5.09886796  *
    49       O          2.46713958  *   0.07901500  *  -4.20407667  *
    50       O         -0.15473649  *   4.18914310  *  -4.94643728  *
    51       O          7.33453271  *  -0.23228335  *  -4.47681086  *
    52       O          5.08367787  *   4.25257376  *  -4.93526932  *
    53       O         -1.60244301  *  -2.25761932  *  -3.92075811  *
    54       O         -3.96503453  *   2.33972557  *  -3.68373310  *
    55       O          3.50694758  *  -2.32357537  *  -4.13927760  *
    56       O          1.17391441  *   2.31268856  *  -3.82305200  *
    57       O          8.62755628  *  -2.51565429  *  -4.37184471  *
    58       O          6.29453908  *   2.16786776  *  -4.10682503  *
    59      Si         -0.24468073  *  -2.89511980  *  -3.44863385  *
    60      Si         -2.67136117  *   1.51731620  *  -3.31138440  *
    61      Si          4.72536506  *  -3.30209847  *  -3.98880231  *
    62      Si          2.46292295  *   1.51653745  *  -3.45820752  *
    63      Si          7.52059354  *   1.23870602  *  -3.84810352  *
    64       O          0.97401372  *  -2.02906458  *  -3.90989624  *
    65       O         -1.38785352  *   2.31400679  *  -3.70114862  *
    66       O          6.06365272  *  -2.49976815  *  -4.17683991  *
    67       O          3.72150805  *   2.32092594  *  -3.92515935  *
    68       H         -4.04537705  *   3.25641201  *  -3.93825125  *
    69       H          8.95849268  *   2.68020541  *  -4.92797884  *
    70       H          9.83519626  *  -0.40066026  *  -0.61933876  *
    71       H          7.04563300  *   2.83451727  *  -0.46089097  *
    72       H         -2.25459152  *  -3.60315643  *   0.07009856  *
    73       H         -3.97965112  *   0.10882779  *   1.03410565  *
    74       O         -0.27569656  *   6.16195226  *  -0.95959570  *
    75       O          5.79434296  *   5.76904150  *  -0.94399779  *
    76       O          2.48438860  *  -2.94355148  *   1.81528602  *
    77       O          0.00514823  *  -1.04614656  *   1.97909875  *
    78       O         -0.23952010  *   1.44743041  *   1.36224185  *
    79       O          5.17039684  *  -1.38617870  *   1.61258885  *
    80       O          5.27207051  *   1.15140291  *   1.58478017  *
    81       O          2.48775546  *   2.83160748  *   1.51418790  *
[...]
  26.27238  26.29674  26.35524  26.36537  26.41259  26.41546  26.46554  26.50270
  26.53201  26.55742  26.59183  26.60525  26.64856  26.68192  26.72311  26.74208
  26.76146  26.80326  26.83496  26.84720  26.90806  26.92049  26.93271  26.98403
  26.99829  27.02629  27.05154  27.07748  27.09338  27.11657  27.14718  27.16197
  27.19886  27.21248  27.24290  27.26255  27.27006  27.28985  27.30667  27.32535
  27.33979  27.35281  27.37454  27.38760  27.39435  27.42644  27.43778  27.45588
  27.47800  27.53090  27.54809  27.57323  27.61079  27.62904  27.65323  27.66211
  27.69352  27.71302  27.74200  27.75776  27.77576  27.81645  27.84890  27.88013
  27.90213  27.91722  27.94271  27.97490  27.98398  27.99681  28.03613  28.08570
  28.14002  28.18294  28.27400  28.29453  51.57380  51.93595  51.94476  53.23245
  53.23278


              NET ATOMIC CHARGES AND DIPOLE CONTRIBUTIONS

  ATOM NO.   TYPE          CHARGE      No. of ELECS.   s-Pop       p-Pop       d-Pop       
    1          O          -0.574171        6.5742     1.67163     4.90254
    2          O          -0.430472        6.4305     1.54409     4.88639
    3          O          -0.445740        6.4457     1.55288     4.89286
    4          O          -0.622301        6.6223     1.68866     4.93364
    5          O          -0.452995        6.4530     1.54663     4.90636
    6          O          -0.446678        6.4467     1.54749     4.89919
    7          O          -0.584674        6.5847     1.67194     4.91273
    8          O          -0.604153        6.6042     1.69200     4.91216
    9          O          -0.574765        6.5748     1.68353     4.89123
   10          O          -0.579270        6.5793     1.67486     4.90441
   11          O          -0.442365        6.4424     1.54665     4.89571
   12          O          -0.451973        6.4520     1.54607     4.90590
   13          O          -0.592022        6.5920     1.69068     4.90134
   14          O          -0.447439        6.4474     1.54342     4.90402
   15          O          -0.450504        6.4505     1.54666     4.90384
   16         Si           0.878376        3.1216     0.61212     2.01642     0.49308
   17         Si           0.880677        3.1193     0.61152     2.01585     0.49195
   18         Si           0.881727        3.1183     0.60608     2.01571     0.49648
   19         Si           0.899808        3.1002     0.60634     1.99105     0.50280
   20         Si           0.871693        3.1283     0.60718     2.02538     0.49574
   21         Si           0.874134        3.1259     0.60980     2.02002     0.49605
   22         Si           0.880905        3.1191     0.60606     2.01629     0.49674
   23         Si           0.881152        3.1188     0.60510     2.01570     0.49805
   24         Si           0.879966        3.1200     0.60817     2.01687     0.49499
   25         Si           0.888417        3.1116     0.60691     2.00714     0.49752
   26         Si           0.879304        3.1207     0.60604     2.01801     0.49665
   27          O          -0.501115        6.5011     1.63170     4.86941
   28          O          -0.526578        6.5266     1.63694     4.88964
   29          O          -0.611117        6.6111     1.67631     4.93480
   30          O          -0.467977        6.4680     1.62248     4.84550
   31          O          -0.457605        6.4576     1.55366     4.90394
   32          O          -0.503595        6.5036     1.63281     4.87078
   33          O          -0.448234        6.4482     1.54849     4.89974
   34          O          -0.475892        6.4759     1.62363     4.85227
   35          O          -0.487139        6.4871     1.62720     4.85994
   36          O          -0.452039        6.4520     1.54817     4.90387
   37          O          -0.470043        6.4700     1.62210     4.84794
   38          O          -0.496465        6.4965     1.63111     4.86536
   39          O          -0.608976        6.6090     1.67474     4.93423
   40         Si           0.860676        3.1393     0.61397     2.03961     0.48574
   41         Si           0.714630        3.2854     0.78470     2.10554     0.39513
   42         Si           0.893334        3.1067     0.61092     1.99654     0.49921
   43         Si           0.891491        3.1085     0.60378     2.00262     0.50211
   44         Si           0.885211        3.1148     0.61054     2.01215     0.49210
   45         Si           0.888441        3.1116     0.60520     2.00455     0.50181
   46          O          -0.473178        6.4732     1.62696     4.84621
   47          O          -0.521283        6.5213     1.63047     4.89081
   48          O          -0.581527        6.5815     1.68145     4.90008
   49          O          -0.474586        6.4746     1.63340     4.84119
   50          O          -0.597084        6.5971     1.67123     4.92585
   51          O          -0.461412        6.4614     1.62241     4.83901
   52          O          -0.590948        6.5909     1.67958     4.91137
   53          O          -0.480947        6.4809     1.58274     4.89821
   54          O          -0.575702        6.5757     1.67194     4.90376
   55          O          -0.428114        6.4281     1.56131     4.86680
   56          O          -0.421731        6.4217     1.54698     4.87475
   57          O          -0.575309        6.5753     1.67132     4.90399
   58          O          -0.436798        6.4368     1.55312     4.88368
   59         Si           0.901598        3.0984     0.61112     1.99165     0.49563
   60         Si           0.887292        3.1127     0.61074     2.01068     0.49129
   61         Si           0.890118        3.1099     0.60489     2.00270     0.50229
   62         Si           0.897475        3.1025     0.60958     1.99368     0.49927
   63         Si           0.883641        3.1164     0.61078     2.01368     0.49190
   64          O          -0.425594        6.4256     1.56611     4.85949
   65          O          -0.441242        6.4412     1.54951     4.89173
   66          O          -0.439379        6.4394     1.55094     4.88844
   67          O          -0.439459        6.4395     1.55639     4.88307
   68          H           0.376944        0.6231     0.62306
   69          H           0.383182        0.6168     0.61682
   70          H           0.383263        0.6167     0.61674
   71          H           0.396230        0.6038     0.60377
   72          H           0.394508        0.6055     0.60549
   73          H           0.379408        0.6206     0.62059
   74          O          -0.610101        6.6101     1.68050     4.92960
   75          O          -0.600869        6.6009     1.66633     4.93454
   76          O          -0.619528        6.6195     1.68013     4.93939
   77          O          -0.591332        6.5913     1.68667     4.90466
   78          O          -0.611507        6.6115     1.69775     4.91376
   79          O          -0.608913        6.6089     1.68477     4.92414
   80          O          -0.605024        6.6050     1.68344     4.92159
   81          O          -0.599904        6.5999     1.68790     4.91201
   82          O          -0.613944        6.6139     1.67389     4.94005
   83          H           0.380265        0.6197     0.61974
   84          H           0.378719        0.6213     0.62128
   85          O          -0.599501        6.5995     1.69109     4.90841
   86          O          -0.555211        6.5552     1.67748     4.87773
   87          H           0.138268        0.8617     0.86173
   88          H           0.390139        0.6099     0.60986
   89          H           0.378358        0.6216     0.62164
   90          H           0.381849        0.6182     0.61815
   91          H           0.383652        0.6163     0.61635
   92          H           0.409036        0.5910     0.59096
   93          H           0.401128        0.5989     0.59887
   94          H           0.376248        0.6238     0.62375
   95          H           0.410349        0.5897     0.58965
   96          H           0.377429        0.6226     0.62257
   97          H           0.402110        0.5979     0.59789
   98          H           0.402299        0.5977     0.59770
   99          H           0.404924        0.5951     0.59508
  100          H           0.404930        0.5951     0.59507
  101          H           0.376783        0.6232     0.62322
  102          H           0.379392        0.6206     0.62061
  103          H           0.392963        0.6070     0.60704
  104          H           0.404223        0.5958     0.59578
  105         Bi           0.009757        4.9902     1.99737     2.99065     0.00223
 DIPOLE           X         Y         Z       TOTAL
 POINT-CHG.     0.344     2.102    -1.670     2.706
 HYBRID         1.589     0.879    -0.137     1.821
 SUM            1.932     2.981    -1.807     3.985


          ATOMIC ORBITAL ELECTRON POPULATIONS

     Atom    s        px        py        pz      x^2-y^2     xz        z^2       yz        xy
    1  O   1.67163   1.64180   1.53824   1.72250
    2  O   1.54409   1.47135   1.76089   1.65414
    3  O   1.55288   1.48131   1.75445   1.65710
    4  O   1.68866   1.54434   1.70131   1.68799
    5  O   1.54663   1.47142   1.77101   1.66393
    6  O   1.54749   1.47578   1.75963   1.66378
    7  O   1.67194   1.35988   1.85577   1.69708
    8  O   1.69200   1.58079   1.66136   1.67002
    9  O   1.68353   1.48018   1.66755   1.74351
   10  O   1.67486   1.67897   1.79955   1.42589
   11  O   1.54665   1.52219   1.76619   1.60733
   12  O   1.54607   1.48915   1.76754   1.64921
   13  O   1.69068   1.68313   1.47093   1.74729
   14  O   1.54342   1.51660   1.76858   1.61884
   15  O   1.54666   1.46785   1.77830   1.65769
   16 Si   0.61212   0.68716   0.65964   0.66963   0.10693   0.11718   0.08341   0.10595   0.07961
   17 Si   0.61152   0.65084   0.66846   0.69655   0.10754   0.11460   0.08150   0.10654   0.08176
   18 Si   0.60608   0.68599   0.68612   0.64360   0.10460   0.10759   0.10156   0.09388   0.08886
   19 Si   0.60634   0.66232   0.66007   0.66866   0.11117   0.11674   0.08425   0.10835   0.08229
   20 Si   0.60718   0.66197   0.67901   0.68440   0.10920   0.10499   0.10736   0.09047   0.08372
   21 Si   0.60980   0.68607   0.67824   0.65572   0.10668   0.11669   0.08184   0.10935   0.08150
   22 Si   0.60606   0.66558   0.69459   0.65612   0.10116   0.10236   0.10191   0.09744   0.09387
   23 Si   0.60510   0.66683   0.67815   0.67072   0.11388   0.10910   0.08273   0.11043   0.08191
   24 Si   0.60817   0.65970   0.69905   0.65812   0.11256   0.10876   0.08563   0.10458   0.08345
   25 Si   0.60691   0.67580   0.71097   0.62037   0.10863   0.11194   0.07910   0.11375   0.08411
   26 Si   0.60604   0.65974   0.70049   0.65778   0.11049   0.10969   0.08231   0.11125   0.08290
   27  O   1.63170   1.77331   1.61162   1.48448
   28  O   1.63694   1.77607   1.65324   1.46033
   29  O   1.67631   1.86885   1.44297   1.62298
   30  O   1.62248   1.76747   1.62896   1.44907
   31  O   1.55366   1.76637   1.69080   1.44677
   32  O   1.63281   1.77672   1.62422   1.46984
   33  O   1.54849   1.75761   1.71710   1.42503
   34  O   1.62363   1.77516   1.63373   1.44338
   35  O   1.62720   1.77028   1.60250   1.48716
   36  O   1.54817   1.76486   1.71227   1.42674
   37  O   1.62210   1.77084   1.60680   1.47030
   38  O   1.63111   1.77452   1.61993   1.47090
   39  O   1.67474   1.69950   1.63833   1.59640
   40 Si   0.61397   0.67389   0.69561   0.67011   0.09412   0.08714   0.10443   0.09669   0.10335
   41 Si   0.78470   0.81063   0.66519   0.62971   0.07398   0.07066   0.08568   0.08005   0.08478
   42 Si   0.61092   0.66613   0.67545   0.65496   0.10354   0.09141   0.10504   0.09439   0.10483
   43 Si   0.60378   0.67695   0.68254   0.64313   0.09071   0.08441   0.10164   0.11147   0.11388
   44 Si   0.61054   0.64528   0.69032   0.67655   0.10081   0.08795   0.10558   0.09009   0.10768
   45 Si   0.60520   0.65985   0.67235   0.67235   0.09287   0.08574   0.10767   0.10868   0.10685
   46  O   1.62696   1.76548   1.39151   1.68922
   47  O   1.63047   1.78137   1.40163   1.70781
   48  O   1.68145   1.59649   1.59464   1.70895
   49  O   1.63340   1.77255   1.38964   1.67900
   50  O   1.67123   1.87214   1.38071   1.67300
   51  O   1.62241   1.75912   1.38216   1.69773
   52  O   1.67958   1.56884   1.67093   1.67160
   53  O   1.58274   1.47405   1.68988   1.73428
   54  O   1.67194   1.65195   1.43008   1.82172
   55  O   1.56131   1.53200   1.60784   1.72696
   56  O   1.54698   1.48913   1.64331   1.74230
   57  O   1.67132   1.66137   1.61389   1.62873
   58  O   1.55312   1.51807   1.61377   1.75184
   59 Si   0.61112   0.66910   0.67132   0.65122   0.10310   0.09224   0.10446   0.09010   0.10574
   60 Si   0.61074   0.64683   0.69018   0.67367   0.09701   0.08735   0.10554   0.09463   0.10676
   61 Si   0.60489   0.66337   0.68205   0.65728   0.09268   0.08381   0.10801   0.10917   0.10862
   62 Si   0.60958   0.66354   0.66991   0.66023   0.09930   0.09081   0.10623   0.09586   0.10706
   63 Si   0.61078   0.64735   0.68969   0.67664   0.10024   0.08952   0.10567   0.09040   0.10608
   64  O   1.56611   1.46613   1.66912   1.72424
   65  O   1.54951   1.49676   1.65000   1.74497
   66  O   1.55094   1.48001   1.65957   1.74886
   67  O   1.55639   1.48242   1.65978   1.74087
   68  H   0.62306
   69  H   0.61682
   70  H   0.61674
   71  H   0.60377
   72  H   0.60549
   73  H   0.62059
   74  O   1.68050   1.54794   1.51767   1.86399
   75  O   1.66633   1.69020   1.38992   1.85442
   76  O   1.68013   1.69372   1.50729   1.73839
   77  O   1.68667   1.75539   1.48143   1.66784
   78  O   1.69775   1.59153   1.51782   1.80441
   79  O   1.68477   1.84179   1.38660   1.69575
   80  O   1.68344   1.81532   1.40928   1.69699
   81  O   1.68790   1.61815   1.52090   1.77295
   82  O   1.67389   1.71872   1.47401   1.74731
   83  H   0.61974
   84  H   0.62128
   85  O   1.69109   1.41603   1.78115   1.71124
   86  O   1.67748   1.69369   1.37494   1.80909
   87  H   0.86173
   88  H   0.60986
   89  H   0.62164
   90  H   0.61815
   91  H   0.61635
   92  H   0.59096
   93  H   0.59887
   94  H   0.62375
   95  H   0.58965
   96  H   0.62257
   97  H   0.59789
   98  H   0.59770
   99  H   0.59508
  100  H   0.59507
  101  H   0.62322
  102  H   0.62061
  103  H   0.60704
  104  H   0.59578
  105 Bi   1.99737   1.01146   1.01046   0.96873   0.00007   0.00114   0.00085   0.00013   0.00004


                    (SZ)    =    0.500000
                    (S**2)  =    1.752299


          ATOMIC ORBITAL SPIN POPULATIONS

    Atom   Total    s     px     py     pz   x^2-y^2  xz     z^2    yz     xy
         Atomic
    1  O  0.0002  0.000  0.000  0.000 -0.000
    2  O  0.0000  0.000 -0.000  0.000  0.000
    3  O -0.0000 -0.000 -0.000 -0.000 -0.000
    4  O  0.0000  0.000 -0.000  0.000 -0.000
    5  O -0.0000 -0.000 -0.000 -0.000 -0.000
    6  O  0.0000  0.000  0.000  0.000  0.000
    7  O  0.0000  0.000  0.000  0.000  0.000
    8  O -0.0000 -0.000  0.000  0.000 -0.000
    9  O -0.0000 -0.000 -0.000  0.000 -0.000
   10  O  0.0000 -0.000  0.000 -0.000  0.000
   11  O  0.0000  0.000 -0.000 -0.000  0.000
   12  O -0.0000 -0.000 -0.000 -0.000 -0.000
   13  O -0.0000 -0.000 -0.000 -0.000 -0.000
   14  O  0.0000  0.000  0.000  0.000 -0.000
   15  O  0.0000  0.000 -0.000  0.000  0.000
   16 Si  0.0000  0.000  0.000  0.000  0.000  0.000 -0.000  0.000  0.000 -0.000
   17 Si  0.0000  0.000  0.000 -0.000 -0.000  0.000  0.000  0.000 -0.000 -0.000
   18 Si -0.0000 -0.000  0.000  0.000 -0.000 -0.000  0.000 -0.000 -0.000  0.000
   19 Si  0.0001 -0.000  0.000  0.000  0.000 -0.000  0.000  0.000  0.000  0.000
   20 Si  0.0000 -0.000  0.000  0.000 -0.000  0.000 -0.000  0.000  0.000  0.000
   21 Si  0.0000  0.000 -0.000  0.000 -0.000  0.000 -0.000 -0.000 -0.000 -0.000
   22 Si -0.0000 -0.000 -0.000  0.000 -0.000  0.000 -0.000 -0.000  0.000  0.000
   23 Si  0.0000  0.000 -0.000  0.000 -0.000  0.000  0.000 -0.000 -0.000 -0.000
   24 Si -0.0000 -0.000  0.000 -0.000 -0.000  0.000 -0.000 -0.000  0.000 -0.000
   25 Si -0.0000 -0.000 -0.000  0.000 -0.000  0.000  0.000  0.000  0.000  0.000
   26 Si  0.0000  0.000 -0.000  0.000  0.000 -0.000  0.000 -0.000 -0.000  0.000
   27  O  0.0000  0.000  0.000  0.000  0.000
   28  O -0.0001 -0.000 -0.000 -0.000 -0.000
   29  O -0.0000 -0.000  0.000 -0.000 -0.000
   30  O -0.0009 -0.000  0.000 -0.001 -0.000
   31  O -0.0001 -0.000 -0.000 -0.000 -0.000
   32  O  0.0002  0.000  0.000  0.000  0.000
   33  O -0.0002 -0.000 -0.000 -0.000 -0.000
   34  O -0.0001 -0.000 -0.000 -0.000 -0.000
   35  O  0.0000  0.000  0.000  0.000  0.000
   36  O  0.0000  0.000  0.000  0.000 -0.000
   37  O -0.0008 -0.000  0.000 -0.000 -0.000
   38  O  0.0001  0.000  0.000  0.000  0.000
   39  O -0.0000 -0.000 -0.000 -0.000  0.000
   40 Si -0.0000 -0.000 -0.000 -0.000 -0.000  0.000 -0.000  0.000 -0.000  0.000
   41 Si  0.0000  0.000  0.000 -0.000  0.000 -0.000  0.000 -0.000  0.000 -0.000
   42 Si -0.0021 -0.001  0.000 -0.002  0.000  0.000  0.000  0.000  0.000  0.000
   43 Si -0.0003 -0.000 -0.000 -0.000  0.000 -0.000  0.000 -0.000  0.000  0.000
   44 Si  0.0002  0.000 -0.000  0.000 -0.000 -0.000  0.000 -0.000  0.000 -0.000
   45 Si -0.0001 -0.000 -0.000  0.000 -0.000  0.000  0.000  0.000  0.000  0.000
   46  O -0.0001 -0.000 -0.000 -0.000 -0.000
   47  O  0.0000  0.000  0.000  0.000  0.000
   48  O  0.0001  0.000  0.000  0.000 -0.000
   49  O -0.0045 -0.005 -0.001 -0.000  0.002
   50  O -0.0001 -0.000 -0.000 -0.000 -0.000
   51  O  0.0007  0.001  0.000  0.000 -0.000
   52  O  0.0002  0.000 -0.000  0.000 -0.000
   53  O  0.0000  0.000  0.000 -0.000  0.000
   54  O -0.0000 -0.000 -0.000  0.000 -0.000
   55  O  0.0001  0.000 -0.000  0.000 -0.000
   56  O -0.0006 -0.000 -0.000 -0.000  0.000
   57  O  0.0002  0.000  0.000  0.000  0.000
   58  O  0.0010  0.000  0.000  0.000  0.000
   59 Si -0.0002 -0.000 -0.000  0.000 -0.000 -0.000  0.000  0.000  0.000  0.000
   60 Si -0.0000 -0.000 -0.000 -0.000  0.000 -0.000  0.000 -0.000  0.000 -0.000
   61 Si -0.0000  0.000 -0.000 -0.000 -0.000  0.000 -0.000  0.000  0.000 -0.000
   62 Si -0.0006 -0.002  0.000 -0.000  0.000  0.000  0.000  0.000  0.000  0.000
   63 Si  0.0002  0.000 -0.000  0.000 -0.000 -0.000  0.000  0.000 -0.000 -0.000
   64  O -0.0005 -0.000 -0.000 -0.000  0.000
   65  O -0.0000  0.000  0.000 -0.000  0.000
   66  O  0.0006  0.000  0.000  0.000  0.000
   67  O -0.0023 -0.001 -0.000 -0.001 -0.001
   68  H -0.0000 -0.000
   69  H  0.0000  0.000
   70  H -0.0000 -0.000
   71  H  0.0000  0.000
   72  H  0.0000  0.000
   73  H -0.0000 -0.000
   74  O  0.0000 -0.000 -0.000  0.000  0.000
   75  O -0.0000 -0.000 -0.000 -0.000 -0.000
   76  O -0.0000 -0.000  0.000  0.000 -0.000
   77  O -0.0000  0.000  0.000 -0.000 -0.000
   78  O -0.0000  0.000  0.000 -0.000  0.000
   79  O -0.0000 -0.000  0.000 -0.000 -0.000
   80  O -0.0000 -0.000 -0.000 -0.000 -0.000
   81  O -0.0000 -0.000 -0.000 -0.000 -0.000
   82  O -0.0000 -0.000 -0.000 -0.000 -0.000
   83  H  0.0000  0.000
   84  H  0.0000  0.000
   85  O  0.0000  0.000  0.000  0.000 -0.000
   86  O -0.0000 -0.000  0.000 -0.000 -0.000
   87  H  0.0000  0.000
   88  H  0.0000  0.000
   89  H -0.0000 -0.000
   90  H  0.0000  0.000
   91  H  0.0000  0.000
   92  H  0.0000  0.000
   93  H -0.0000 -0.000
   94  H -0.0000 -0.000
   95  H -0.0000 -0.000
   96  H  0.0000  0.000
   97  H  0.0000  0.000
   98  H  0.0000  0.000
   99  H  0.0000  0.000
  100  H -0.0000 -0.000
  101  H -0.0000 -0.000
  102  H -0.0000 -0.000
  103  H -0.0000 -0.000
  104  H  0.0000  0.000
  105 Bi  1.0093  0.000  0.539  0.949 -0.479 -0.000 -0.000 -0.000  0.000  0.000

 **********************
 *                    *
 * JOB ENDED NORMALLY *
 *                    *
 **********************



 TOTAL JOB TIME:           131.33 SECONDS

 == MOPAC DONE ==
