

 Parallel Execution: Process Information
 ==============================================================================
 Rank   Node Name                              NodeID   MyNodeRank  NodeMaster
    0   adf1                                      0          0          0
    1   adf1                                      0          1         -1
    2   adf1                                      0          2         -1
    3   adf1                                      0          3         -1
    4   adf1                                      0          4         -1
    5   adf1                                      0          5         -1
    6   adf1                                      0          6         -1
    7   adf1                                      0          7         -1
    8   adf1                                      0          8         -1
    9   adf1                                      0          9         -1
   10   adf1                                      0         10         -1
   11   adf1                                      0         11         -1
 ==============================================================================


May use up to 22932MB of RAM as shared memory on node 0

 *******************************************************************************
 *                                                                             *
 *  --------------------------------                                           *
 *   Amsterdam Modeling Suite (AMS)              2020.202                      *
 *  --------------------------------                                           *
 *                                               r90167 2020-12-05             *
 *                                                                             *
 *                                                                             *
 *                              =================                              *
 *                              |               |                              *
 *                              |     A M S     |                              *
 *                              |               |                              *
 *                              =================                              *
 *                                                                             *
 *                                                                             *
 *   Online information and documentation:  https://www.scm.com/support/       *
 *   E-mail:  support@scm.com   info@scm.com                                   *
 *                                                                             *
 *   Scientific publications using AMS results must be properly referenced     *
 *   See the User Manuals (or the web site) for recommended citations          *
 *   The terms and conditions of the End User License Agreement apply to       *
 *   the use of AMS, https://www.scm.com/license-terms/                        *
 *                                                                             *
 **********************  x86_64_linux_intel / intelmpi  ************************
 
 Licensed to: Dr. Miroslav Ilias / Matej Bel University, Department Chemistry, Fac. Natural Sciences / Banska Bystrica / SLOVAKIA
 SCM User ID: u17848
  
 AMS 2020.202  RunTime: Mar08-2021 07:03:24  Nodes: 1  Procs: 12

 AMS jobname: ams
 AMS jobid  : 473469064

 Start   directory: /home/milias/Work/projects/open-collection/theoretical_chemistry/projects/nmr_diplomovky/reference_compounds/tetramethylsilane/ams/b3lyp_tz2p_good/cosmo-h2o/tmp.milias.4341.0.noindex/
 Results directory: /home/milias/Work/projects/open-collection/theoretical_chemistry/projects/nmr_diplomovky/reference_compounds/tetramethylsilane/ams/b3lyp_tz2p_good/cosmo-h2o/TMS.geopt_freq_nmrshield_b3lyp_tz2p_good_cosmo-h2o.results/
 Scratch directory: /tmp/amstmp_ams_kid0.473469064/


 Communication costs MPI_COMM_WORLD:      2.765 usec per message,   0.0271 usec per 8-byte item
 Communication costs for intra-node:      2.726 usec per message,   0.0274 usec per 8-byte item

 RNG seed: 1712363454 1019874583 1248900329 -1519847624 -557301787 1213827687 -1951895342 1094283962



                       *********************************************************************
                       *  ADF 2020.202  RunTime: Mar08-2021 07:03:24  Nodes: 1  Procs: 12  *
                       *********************************************************************
  
       ***************************
       *  GEOMETRY OPTIMIZATION  *
       ***************************

Optimization Method                    Quasi Newton
Optimization Coordinates               Delocalized Coordinates
Optimize lattice                       F
 
 ------------------------------------------------------
 Convergence criteria (Hartree,Angstrom)
 ------------------------------------------------------
 Maximum gradient               0.001000000000
 Maximum rms gradient           0.000666666667
 Maximum step allowed           0.010000000000
 Maximum rms step allowed       0.006666666667
 Maximum energy change allowe   0.000170000000
 Maximum stress energy allowe   0.000500000000
 
Initial model Hessian                  Automatic Hessian
 
------------------------------------
Quasi-Newton Optimizer Parameters
------------------------------------
Hessian Update Method                  BFGS
Maximum number of steps                  250
First GDIIS cycle                          0
Maximum GDIIS vectors                      0
Trust radius (bohr)                        0.200000
Trust radius varies                        T
Constraints converged at all steps         T
Use projector                              T
 
 Rigid motions settings for: old optimizer
 Atomic rotations (x,y,z):     T T T
 Atomic translations (x,y,z):  T T T
 Tolerance:                   1.000000000000000E-006
 
--------
Geometry
--------
Atoms
  Index Symbol   x (angstrom)   y (angstrom)   z (angstrom)
      1     Si    -0.00020199     0.00015279     0.00007739       adf.R=1.908
      2      C    -0.92336272    -0.17158832    -1.62390905       adf.R=1.700
      3      C     0.88862560     1.65151281     0.04281985       adf.R=1.700
      4      C     1.25208747    -1.38754578     0.15677717       adf.R=1.700
      5      C    -1.21758545    -0.09224100     1.42420766       adf.R=1.700
      6      H    -1.45026539    -1.12823276    -1.67235321       adf.R=1.350
      7      H    -1.66034068     0.62765651    -1.73860184       adf.R=1.350
      8      H    -0.23367292    -0.12106957    -2.47058328       adf.R=1.350
      9      H     1.60506232     1.72894265    -0.77925557       adf.R=1.350
     10      H     0.17850127     2.47778690    -0.04727073       adf.R=1.350
     11      H     1.43507320     1.77482782     0.98162175       adf.R=1.350
     12      H     1.80399369    -1.30902146     1.09717160       adf.R=1.350
     13      H     0.75750239    -2.36220494     0.13427529       adf.R=1.350
     14      H     1.97382254    -1.35456075    -0.66369384       adf.R=1.350
     15      H    -0.70216414     0.00531641     2.38337427       adf.R=1.350
     16      H    -1.95888608     0.70825589     1.35462627       adf.R=1.350
     17      H    -1.74878911    -1.04768721     1.42041626       adf.R=1.350
 
Total System Charge             0.00000
Bonding info available!
 
 
----------------
ADF Engine Input
----------------
 
 Basis
 Type TZ2P
 Core None
 End
 Save TAPE10
 XC
 Hybrid B3LYP
 End
 Relativity
 Level None
 End
 Solvation
 Surf Delley
 Solv name=Water cav0=0.0 cav1=0.0067639
 Charged method=CONJ
 C-Mat POT
 SCF VAR ALL
 CSMRSP
 End
 NumericalQuality Good
 

 Title: *** (NO TITLE) ***

 Using automatic Hessian for delocalized coordinates.
 *** GOStep1 ***

 SOLVATION
-------------------------------------------

  The Delley construction of COSMO surface surface is calculated

       Division Level for Surface Triangles (NDIV)                  3
       Final Division Level for Triangles (NFDIV)                   1
       Radius of the Solvent (RSOL)                           1.93000 angstr
  Dielectric Constant (EPSL)                                 78.39000

       COSMO equation is solved iteratively-               conjugate-gradient

       Maximun of Iterations for Charges (NCIX)                  1000
       Criterion for Charge convergence (CCNV)                1.0E-08

  COSMO charges included variationally in SCF

       COSMO included at every SCF cycle

  Geometry-dependent empirical factor                         0.00000

  C-Matrix calculated in cspmtx

  In cspmtx, C-Matrix calculated using fitted potential

-------------------------------------------



 -------------------------------------------
  COSMO surface
  Area             =          524.196
  Volume           =          924.419
  Number of Points =         1290
 -------------------------------------------



 ======================
 RI Hartree-Fock Scheme
 ======================
  
 Fit Set Quality     : GOOD
 Integration Quality : GOOD
 Threshold Quality   : GOOD
 Response Quality    : DEFAULT
 Is Range Separated  :  F
 
 RIHartreeFock Dependency: number of modified vectors:          13
 cosmo_calcen: 0.5 (esolb+esolc) (Hartrees) =   -0.001846

 Solvation energy (screening term,uncorrected) =     -1.158252 kcal/mol

 Solvation energy (dispersion and cavitation terms) =      0.980207 kcal/mol
 Solvation Energy Contributions (Hartrees)
          esola   esolb+esolc
     0.00184579   -0.00369159
 esol last cycle   -0.00184579
  
 Hartree-Fock exchange energy:   -45.3984943915981     
 cosmo_calcen: 0.5 (esolb+esolc) (Hartrees) =   -0.001846

 Solvation energy (screening term,uncorrected) =     -1.158252 kcal/mol

 Solvation energy (dispersion and cavitation terms) =      0.980207 kcal/mol
 Solvation Energy Contributions (Hartrees)
          esola   esolb+esolc
     0.00184579   -0.00369158
 esol last cycle   -0.00184579
  pauli hf:                             -1.485365710894280        -40.4189          -932.08         -3899.83
  elstat hf:                            -1.060253031699309        -28.8510          -665.32         -2783.69

 Energy gradients wrt nuclear displacements
 ==========================================

     Atom      Cartesian (a.u./angstrom)
                 X         Y         Z
 ----------------------------------------
     1 Si    0.000122 -0.000127  0.000021
     2 C     0.001997  0.000376  0.003433
     3 C    -0.001905 -0.003606 -0.000186
     4 C    -0.002795  0.003058 -0.000337
     5 C     0.002682  0.000113 -0.003100
     6 H     0.000047 -0.000892  0.001029
     7 H    -0.000169  0.000948  0.000974
     8 H     0.001299  0.000179  0.000215
     9 H     0.000142 -0.001005 -0.000872
    10 H    -0.001349 -0.000220 -0.000113
    11 H     0.000010 -0.000939  0.001004
    12 H    -0.000253  0.001008  0.000880
    13 H    -0.001343 -0.000075 -0.000127
    14 H    -0.000065  0.000956 -0.000963
    15 H     0.001337  0.000169  0.000086
    16 H    -0.000019  0.000960 -0.001015
    17 H     0.000263 -0.000903 -0.000930
 ----------------------------------------
 Mulliken charges used for AMS results%charges...
 
----------------------------------------------------------------------
Geometry Convergence after Step   1       (Hartree/Angstrom,Angstrom)
----------------------------------------------------------------------
current energy                               -3.57294072 Hartree
energy change                      -3.57294072     0.00017000    F
constrained gradient max            0.00360560     0.00100000    F
constrained gradient rms            0.00131960     0.00066667    F
gradient max                        0.00360560
gradient rms                        0.00131960
cart. step max                      0.00637541     0.01000000    T
cart. step rms                      0.00345328     0.00666667    T
 
 
--------
Geometry
--------
Atoms
  Index Symbol   x (angstrom)   y (angstrom)   z (angstrom)
      1     Si    -0.00031502     0.00029782     0.00014156       adf.R=1.908
      2      C    -0.92510627    -0.17197419    -1.62706401       adf.R=1.700
      3      C     0.89033900     1.65483240     0.04296423       adf.R=1.700
      4      C     1.25445599    -1.39018969     0.15699604       adf.R=1.700
      5      C    -1.22002705    -0.09241254     1.42708060       adf.R=1.700
      6      H    -1.45302258    -1.12745439    -1.67837116       adf.R=1.350
      7      H    -1.66259254     0.62579127    -1.74497726       adf.R=1.350
      8      H    -0.23804293    -0.12216388    -2.47543164       adf.R=1.350
      9      H     1.60741566     1.73512550    -0.77777343       adf.R=1.350
     10      H     0.18308593     2.48304730    -0.04698726       adf.R=1.350
     11      H     1.43762347     1.78098933     0.98040061       adf.R=1.350
     12      H     1.80802962    -1.31444843     1.09617930       adf.R=1.350
     13      H     0.76297599    -2.36600093     0.13486298       adf.R=1.350
     14      H     1.97732913    -1.35987604    -0.66204551       adf.R=1.350
     15      H    -0.70757838     0.00475088     2.38742010       adf.R=1.350
     16      H    -1.96251647     0.70662940     1.36040495       adf.R=1.350
     17      H    -1.75265354    -1.04664382     1.42589988       adf.R=1.350
 
Total System Charge             0.00000
Bonding info available!
 
 *** GOStep2 ***

 SOLVATION
-------------------------------------------

  The Delley construction of COSMO surface surface is calculated

       Division Level for Surface Triangles (NDIV)                  3
       Final Division Level for Triangles (NFDIV)                   1
       Radius of the Solvent (RSOL)                           1.93000 angstr
  Dielectric Constant (EPSL)                                 78.39000

       COSMO equation is solved iteratively-               conjugate-gradient

       Maximun of Iterations for Charges (NCIX)                  1000
       Criterion for Charge convergence (CCNV)                1.0E-08

  COSMO charges included variationally in SCF

       COSMO included at every SCF cycle

  Geometry-dependent empirical factor                         0.00000

  C-Matrix calculated in cspmtx

  In cspmtx, C-Matrix calculated using fitted potential

-------------------------------------------



 -------------------------------------------
  COSMO surface
  Area             =          524.166
  Volume           =          923.872
  Number of Points =         1288
 -------------------------------------------



 ======================
 RI Hartree-Fock Scheme
 ======================
  
 Fit Set Quality     : GOOD
 Integration Quality : GOOD
 Threshold Quality   : GOOD
 Response Quality    : DEFAULT
 Is Range Separated  :  F
 
 RIHartreeFock Dependency: number of modified vectors:          13
 cosmo_calcen: 0.5 (esolb+esolc) (Hartrees) =   -0.001802

 Solvation energy (screening term,uncorrected) =     -1.130545 kcal/mol

 Solvation energy (dispersion and cavitation terms) =      0.980150 kcal/mol
 Solvation Energy Contributions (Hartrees)
          esola   esolb+esolc
     0.00180164   -0.00360328
 esol last cycle   -0.00180164
  
 Hartree-Fock exchange energy:   -45.3953734509566     
 cosmo_calcen: 0.5 (esolb+esolc) (Hartrees) =   -0.001802

 Solvation energy (screening term,uncorrected) =     -1.130546 kcal/mol

 Solvation energy (dispersion and cavitation terms) =      0.980150 kcal/mol
 Solvation Energy Contributions (Hartrees)
          esola   esolb+esolc
     0.00180164   -0.00360328
 esol last cycle   -0.00180164
  pauli hf:                             -1.416055358610778        -38.5328          -888.59         -3717.85
  elstat hf:                            -1.058050424277086        -28.7910          -663.94         -2777.91

 Energy gradients wrt nuclear displacements
 ==========================================

     Atom      Cartesian (a.u./angstrom)
                 X         Y         Z
 ----------------------------------------
     1 Si    0.000078 -0.000086  0.000032
     2 C     0.001315  0.000244  0.002282
     3 C    -0.001263 -0.002382 -0.000108
     4 C    -0.001876  0.002049 -0.000244
     5 C     0.001770  0.000095 -0.002045
     6 H     0.000064 -0.000212  0.000349
     7 H     0.000009  0.000245  0.000350
     8 H     0.000365  0.000059  0.000150
     9 H    -0.000016 -0.000340 -0.000217
    10 H    -0.000386 -0.000154 -0.000028
    11 H    -0.000040 -0.000323  0.000255
    12 H    -0.000137  0.000335  0.000211
    13 H    -0.000401  0.000064 -0.000042
    14 H    -0.000083  0.000316 -0.000248
    15 H     0.000405  0.000048 -0.000059
    16 H     0.000060  0.000257 -0.000333
    17 H     0.000137 -0.000213 -0.000306
 ----------------------------------------
 Mulliken charges used for AMS results%charges...

 dE(predicted):    -0.72954E-04, dE(actual):    -0.11343E-03, Trust radius:    0.200000, all in a.u.
 
----------------------------------------------------------------------
Geometry Convergence after Step   2       (Hartree/Angstrom,Angstrom)
----------------------------------------------------------------------
current energy                               -3.57305415 Hartree
energy change                      -0.00011343     0.00017000    T
constrained gradient max            0.00238177     0.00100000    F
constrained gradient rms            0.00078506     0.00066667    F
gradient max                        0.00238177
gradient rms                        0.00078506
cart. step max                      0.00591240     0.01000000    T
cart. step rms                      0.00321485     0.00666667    T
 
 
--------
Geometry
--------
Atoms
  Index Symbol   x (angstrom)   y (angstrom)   z (angstrom)
      1     Si    -0.00038782     0.00043914     0.00019669       adf.R=1.908
      2      C    -0.92703248    -0.17236507    -1.63054222       adf.R=1.700
      3      C     0.89218960     1.65852992     0.04313669       adf.R=1.700
      4      C     1.25713768    -1.39317025     0.15726707       adf.R=1.700
      5      C    -1.22270073    -0.09260808     1.43022216       adf.R=1.700
      6      H    -1.45587865    -1.12704197    -1.68368536       adf.R=1.350
      7      H    -1.66477197     0.62458276    -1.75088966       adf.R=1.350
      8      H    -0.24162737    -0.12332280    -2.48010701       adf.R=1.350
      9      H     1.60976124     1.74076747    -0.77677321       adf.R=1.350
     10      H     0.18683737     2.48815571    -0.04673528       adf.R=1.350
     11      H     1.44009908     1.78662334     0.97971886       adf.R=1.350
     12      H     1.81203613    -1.31934930     1.09562803       adf.R=1.350
     13      H     0.76766229    -2.36982821     0.13545912       adf.R=1.350
     14      H     1.98072773    -1.36474082    -0.66098706       adf.R=1.350
     15      H    -0.71224903     0.00430222     2.39146093       adf.R=1.350
     16      H    -1.96611636     0.70546009     1.36553750       adf.R=1.350
     17      H    -1.75628672    -1.04613414     1.43079275       adf.R=1.350
 
Total System Charge             0.00000
Bonding info available!
 
 *** GOStep3 ***

 SOLVATION
-------------------------------------------

  The Delley construction of COSMO surface surface is calculated

       Division Level for Surface Triangles (NDIV)                  3
       Final Division Level for Triangles (NFDIV)                   1
       Radius of the Solvent (RSOL)                           1.93000 angstr
  Dielectric Constant (EPSL)                                 78.39000

       COSMO equation is solved iteratively-               conjugate-gradient

       Maximun of Iterations for Charges (NCIX)                  1000
       Criterion for Charge convergence (CCNV)                1.0E-08

  COSMO charges included variationally in SCF

       COSMO included at every SCF cycle

  Geometry-dependent empirical factor                         0.00000

  C-Matrix calculated in cspmtx

  In cspmtx, C-Matrix calculated using fitted potential

-------------------------------------------



 -------------------------------------------
  COSMO surface
  Area             =          524.201
  Volume           =          923.579
  Number of Points =         1286
 -------------------------------------------



 ======================
 RI Hartree-Fock Scheme
 ======================
  
 Fit Set Quality     : GOOD
 Integration Quality : GOOD
 Threshold Quality   : GOOD
 Response Quality    : DEFAULT
 Is Range Separated  :  F
 
 RIHartreeFock Dependency: number of modified vectors:          13
 cosmo_calcen: 0.5 (esolb+esolc) (Hartrees) =   -0.001772

 Solvation energy (screening term,uncorrected) =     -1.111905 kcal/mol

 Solvation energy (dispersion and cavitation terms) =      0.980215 kcal/mol
 Solvation Energy Contributions (Hartrees)
          esola   esolb+esolc
     0.00177193   -0.00354387
 esol last cycle   -0.00177193
  
 Hartree-Fock exchange energy:   -45.3907725900023     
 cosmo_calcen: 0.5 (esolb+esolc) (Hartrees) =   -0.001772

 Solvation energy (screening term,uncorrected) =     -1.111905 kcal/mol

 Solvation energy (dispersion and cavitation terms) =      0.980215 kcal/mol
 Solvation Energy Contributions (Hartrees)
          esola   esolb+esolc
     0.00177193   -0.00354387
 esol last cycle   -0.00177193
  pauli hf:                             -1.349202336831668        -36.7137          -846.64         -3542.33
  elstat hf:                            -1.055353128661112        -28.7176          -662.24         -2770.83

 Energy gradients wrt nuclear displacements
 ==========================================

     Atom      Cartesian (a.u./angstrom)
                 X         Y         Z
 ----------------------------------------
     1 Si    0.000035 -0.000039  0.000027
     2 C     0.000477  0.000086  0.000851
     3 C    -0.000466 -0.000880 -0.000027
     4 C    -0.000718  0.000778 -0.000102
     5 C     0.000651  0.000059 -0.000763
     6 H    -0.000011  0.000143 -0.000166
     7 H     0.000016 -0.000151 -0.000144
     8 H    -0.000221 -0.000022 -0.000036
     9 H    -0.000019  0.000169  0.000137
    10 H     0.000218  0.000040  0.000020
    11 H     0.000004  0.000155 -0.000157
    12 H     0.000044 -0.000162 -0.000140
    13 H     0.000224  0.000007  0.000018
    14 H     0.000018 -0.000159  0.000154
    15 H    -0.000213 -0.000024 -0.000003
    16 H     0.000003 -0.000149  0.000170
    17 H    -0.000042  0.000149  0.000160
 ----------------------------------------
 Mulliken charges used for AMS results%charges...

 dE(predicted):    -0.35125E-04, dE(actual):    -0.41654E-04, Trust radius:    0.200000, all in a.u.
 
---------------------------------------------------------
Geometry Convergence after Step   3       ** CONVERGED **
---------------------------------------------------------
current energy                               -3.57309580 Hartree
energy change                      -0.00004165     0.00017000    T
constrained gradient max            0.00087902     0.00100000    T
constrained gradient rms            0.00030288     0.00066667    T
gradient max                        0.00087902
gradient rms                        0.00030288
cart. step max                      0.00055848     0.01000000    T
cart. step rms                      0.00023217     0.00666667    T
 
Geometry optimization converged

Optimized geometry:
 
--------
Geometry
--------
Atoms
  Index Symbol   x (angstrom)   y (angstrom)   z (angstrom)
      1     Si    -0.00038782     0.00043914     0.00019669       adf.R=1.908
      2      C    -0.92703248    -0.17236507    -1.63054222       adf.R=1.700
      3      C     0.89218960     1.65852992     0.04313669       adf.R=1.700
      4      C     1.25713768    -1.39317025     0.15726707       adf.R=1.700
      5      C    -1.22270073    -0.09260808     1.43022216       adf.R=1.700
      6      H    -1.45587865    -1.12704197    -1.68368536       adf.R=1.350
      7      H    -1.66477197     0.62458276    -1.75088966       adf.R=1.350
      8      H    -0.24162737    -0.12332280    -2.48010701       adf.R=1.350
      9      H     1.60976124     1.74076747    -0.77677321       adf.R=1.350
     10      H     0.18683737     2.48815571    -0.04673528       adf.R=1.350
     11      H     1.44009908     1.78662334     0.97971886       adf.R=1.350
     12      H     1.81203613    -1.31934930     1.09562803       adf.R=1.350
     13      H     0.76766229    -2.36982821     0.13545912       adf.R=1.350
     14      H     1.98072773    -1.36474082    -0.66098706       adf.R=1.350
     15      H    -0.71224903     0.00430222     2.39146093       adf.R=1.350
     16      H    -1.96611636     0.70546009     1.36553750       adf.R=1.350
     17      H    -1.75628672    -1.04613414     1.43079275       adf.R=1.350
 
Total System Charge             0.00000
Bonding info available!
 
Performing a single point calculation on the final geometry ...

 *** adf ***



 ===========================
 A T T A C H E D   F I L E S
 ===========================
  
 Restart/tmp/amstmp_ams_kid0.473469064/GOStep3.rkf*** GOStep3 ***



 ===============================
 M O D E L   P A R A M E T E R S
 ===============================
  
 DENSITY FUNCTIONAL POTENTIAL (scf)
    Hybrid:                            B3LYP                                   == Not Default ==

 SPIN  (restricted / unrestr.)
    Molecule:                          Restricted                               
    Fragments:                         Restricted                               

 OTHER ASPECTS
    Relativistic Corrections:          ---                                     == Not Default ==

    Nuclear Charge Density Model:      Point Charge Nuclei                      
    Core Treatment:                    Frozen Orbital(s)                        

    Hyperfine or Zeeman Interaction:   ---                                      

 SOLVATION
-------------------------------------------

  The Delley construction of COSMO surface surface is calculated

       Division Level for Surface Triangles (NDIV)                  3
       Final Division Level for Triangles (NFDIV)                   1
       Radius of the Solvent (RSOL)                           1.93000 angstr
  Dielectric Constant (EPSL)                                 78.39000

       COSMO equation is solved iteratively-               conjugate-gradient

       Maximun of Iterations for Charges (NCIX)                  1000
       Criterion for Charge convergence (CCNV)                1.0E-08

  COSMO charges included variationally in SCF

       COSMO included at every SCF cycle

  Geometry-dependent empirical factor                         0.00000

  C-Matrix calculated in cspmtx

  In cspmtx, C-Matrix calculated using fitted potential

-------------------------------------------




 ===============
 G E O M E T R Y  ***  3D  Molecule  ***
 ===============
  

 ATOMS
 =====                            X Y Z                    CHARGE                     RADIUS
                                (Angstrom)             Nucl     +Core       At.Mass (Angstrom)
                       --------------------------    ----------------       ------- ----------
    1  Si             -0.0004    0.0004    0.0002     14.00     14.00       27.9769    1.9080
    2  C              -0.9270   -0.1724   -1.6305      6.00      6.00       12.0000    1.7000
    3  C               0.8922    1.6585    0.0431      6.00      6.00       12.0000    1.7000
    4  C               1.2571   -1.3932    0.1573      6.00      6.00       12.0000    1.7000
    5  C              -1.2227   -0.0926    1.4302      6.00      6.00       12.0000    1.7000
    6  H              -1.4559   -1.1270   -1.6837      1.00      1.00        1.0078    1.3500
    7  H              -1.6648    0.6246   -1.7509      1.00      1.00        1.0078    1.3500
    8  H              -0.2416   -0.1233   -2.4801      1.00      1.00        1.0078    1.3500
    9  H               1.6098    1.7408   -0.7768      1.00      1.00        1.0078    1.3500
   10  H               0.1868    2.4882   -0.0467      1.00      1.00        1.0078    1.3500
   11  H               1.4401    1.7866    0.9797      1.00      1.00        1.0078    1.3500
   12  H               1.8120   -1.3193    1.0956      1.00      1.00        1.0078    1.3500
   13  H               0.7677   -2.3698    0.1355      1.00      1.00        1.0078    1.3500
   14  H               1.9807   -1.3647   -0.6610      1.00      1.00        1.0078    1.3500
   15  H              -0.7122    0.0043    2.3915      1.00      1.00        1.0078    1.3500
   16  H              -1.9661    0.7055    1.3655      1.00      1.00        1.0078    1.3500
   17  H              -1.7563   -1.0461    1.4308      1.00      1.00        1.0078    1.3500


 FRAGMENTS
 =========                                     Atoms in this Fragment     Cart. coord.s (Angstrom)
                                               -------------------------------------------------------
    1  Si                                                1  Si          -0.0004    0.0004    0.0002
    2  C                                                 2  C           -0.9270   -0.1724   -1.6305
    3  C                                                 3  C            0.8922    1.6585    0.0431
    4  C                                                 4  C            1.2571   -1.3932    0.1573
    5  C                                                 5  C           -1.2227   -0.0926    1.4302
    6  H                                                 6  H           -1.4559   -1.1270   -1.6837
    7  H                                                 7  H           -1.6648    0.6246   -1.7509
    8  H                                                 8  H           -0.2416   -0.1233   -2.4801
    9  H                                                 9  H            1.6098    1.7408   -0.7768
   10  H                                                10  H            0.1868    2.4882   -0.0467
   11  H                                                11  H            1.4401    1.7866    0.9797
   12  H                                                12  H            1.8120   -1.3193    1.0956
   13  H                                                13  H            0.7677   -2.3698    0.1355
   14  H                                                14  H            1.9807   -1.3647   -0.6610
   15  H                                                15  H           -0.7122    0.0043    2.3915
   16  H                                                16  H           -1.9661    0.7055    1.3655
   17  H                                                17  H           -1.7563   -1.0461    1.4308


 Interatomic Distance Matrix (Angstrom)
 --------------------------------------

   1)     0.000
   2)     1.884   0.000
   3)     1.884   3.076   0.000
   4)     1.884   3.075   3.076   0.000
   5)     1.884   3.076   3.076   3.076   0.000
   6)     2.495   1.093   4.032   3.289   3.290   0.000
   7)     2.495   1.093   3.290   4.031   3.291   1.765   0.000
   8)     2.495   1.093   3.290   3.289   4.032   1.765   1.765   0.000
   9)     2.495   3.290   1.093   3.289   4.032   4.295   3.594   3.131   0.000
  10)     2.495   3.291   1.093   4.031   3.291   4.295   3.131   3.595   1.765   0.000
  11)     2.495   4.032   1.093   3.290   3.290   4.896   4.295   4.295   1.765   1.765
          0.000
  12)     2.495   4.031   3.290   1.093   3.290   4.294   4.896   4.293   3.593   4.295
          3.130   0.000
  13)     2.495   3.289   4.031   1.093   3.290   3.130   4.294   3.593   4.294   4.896
          4.294   1.765   0.000
  14)     2.495   3.289   3.290   1.093   4.032   3.593   4.294   3.129   3.130   4.294
          3.594   1.765   1.765   0.000
  15)     2.495   4.032   3.290   3.290   1.093   4.294   4.295   4.896   4.295   3.595
          3.131   3.131   3.594   4.295   0.000
  16)     2.495   3.290   3.290   4.032   1.093   3.594   3.132   4.295   4.295   3.132
          3.594   4.295   4.295   4.896   1.765   0.000
  17)     2.495   3.290   4.032   3.290   1.093   3.130   3.595   4.294   4.896   4.295
          4.295   3.594   3.131   4.294   1.765   1.765   0.000

 Min. Distance =    1.0926
 Max. Distance =    4.8960



 =====================================
 S Y M M E T R Y ,   E L E C T R O N S
 =====================================
  
 Symmetry: NOSYM

 Irreducible Representations, including subspecies
 -------------------------------------------------
 A

 Symmetry is NOT used when fitting density


 Configuration of Valence Electrons
 ==================================
 ( determined in the SCF procedure )

 Total:   50

 Net Charge: 0 (Nuclei minus Electrons)

 Aufbau principle for MO occupations will be applied through SCF cycle no.     150
 Thereafter, the program will assign electrons to MOs that are spatially
 similar to the occupied MOs in a "reference" cycle ("KeepOrbitals").
 The reference cycle is always the PREVIOUS cycle: it will evolve with
 the SCF procedure.
1
 ***************************************************************************************************



                                      ****************************************
                                      *  B U I L D : (Fragments, Functions)  *
                                      ****************************************
  



 =======
 S F O s  ***  (Symmetrized Fragment Orbitals)  ***
 =======
  
 SFOs are linear combinations of (valence) Fragment Orbitals (FOs), such that the SFOs transform as the
 irreducible representations of the (molecular) symmetry group. Each SFO is therefore characterized by
 an irrep of the molecule and by a few (or only one) generating FOs.
 The SFOs constitute a symmetry-adapted basis for the Fock matrix. The MO eigenvector coefficients in
 this basis provide a direct interpretation of the MOs in terms of Frontier Orbital Theory.

 The SFOs are combined with auxiliary Core Functions (CFs) to ensure orthogonalization on the (frozen)
 Core Orbitals (COs). The Core-orthogonalized SFOs (CSFOs) constitute the true Fock basis.

 The FOs, and hence also the (C)SFOs are combinations of the elementary basis functions (BAS). The basis
 functions that participate in the description of the SFOs depend on the irrep. The indices of the
 involved functions are printed below for each irrep.
 (The complete list of primitive basis functions is printed in another section)

 Total nr. of (C)SFOs (summation over all irreps) :   270

 NOTE: a (C)SFO that is defined as a combination of more than one FO is usually NOT normalized.



                                       === A ===
 Nr. of SFOs :  270
 Cartesian basis functions that participate in this irrep (total number =   302) :
      1     2     3     4    11    12    13     5     8    14
     17    20     6     9    15    18    21     7    10    16
     19    22    23    24    25    26    27    28    29    30
     31    32    33    34    35    36    37    38    39    40
     41    42    43    44    47    50    45    48    51    46
     49    52    53    54    55    56    57    58    59    60
     61    62    63    64    65    66    67    68    69    70
     71    72    73    74    77    80    75    78    81    76
     79    82    83    84    85    86    87    88    89    90
     91    92    93    94    95    96    97    98    99   100
    101   102   103   104   107   110   105   108   111   106
    109   112   113   114   115   116   117   118   119   120
    121   122   123   124   125   126   127   128   129   130
    131   132   133   134   137   140   135   138   141   136
    139   142   143   144   145   146   147   148   149   150
    151   152   153   154   155   156   157   158   159   160
    161   162   163   164   165   166   167   168   169   170
    171   172   173   174   175   176   177   178   179   180
    181   182   183   184   185   186   187   188   189   190
    191   192   193   194   195   196   197   198   199   200
    201   202   203   204   205   206   207   208   209   210
    211   212   213   214   215   216   217   218   219   220
    221   222   223   224   225   226   227   228   229   230
    231   232   233   234   235   236   237   238   239   240
    241   242   243   244   245   246   247   248   249   250
    251   252   253   254   255   256   257   258   259   260
    261   262   263   264   265   266   267   268   269   270
    271   272   273   274   275   276   277   278   279   280
    281   282   283   284   285   286   287   288   289   290
    291   292   293   294   295   296   297   298   299   300
    301   302

    SFO  (index         Fragment          Generating    Expansion in Fragment Orbitals
  indx  incl.CFs)   Occup   Orb.Energy   FragmentType  Coeff.   Orbital     on Fragment
 --------------------------------------------------------------------------------------
     1       1      2.000     -66.170 au  Si            1.00      1 S               1
                        (   -1800.579 eV)
     2       2      2.000      -5.327 au  Si            1.00      2 S               1
                        (    -144.944 eV)
     3       3      2.000      -0.437 au  Si            1.00      3 S               1
                        (     -11.884 eV)
     4       4       --         0.146 au  Si            1.00      4 S               1
                        (       3.969 eV)
     5       5       --         1.555 au  Si            1.00      5 S               1
                        (      42.317 eV)
     6       6       --         9.629 au  Si            1.00      6 S               1
                        (     262.020 eV)
     7       7       --       151.002 au  Si            1.00      7 S               1
                        (    4108.975 eV)
     8       8      2.000      -3.681 au  Si            1.00      1 P:x             1
                        (    -100.156 eV)
     9       9      0.667      -0.142 au  Si            1.00      2 P:x             1
                        (      -3.870 eV)
    10      10       --         0.079 au  Si            1.00      3 P:x             1
                        (       2.153 eV)
    11      11       --         0.724 au  Si            1.00      4 P:x             1
                        (      19.710 eV)
    12      12       --         8.464 au  Si            1.00      5 P:x             1
                        (     230.305 eV)
    13      13      2.000      -3.681 au  Si            1.00      1 P:y             1
                        (    -100.156 eV)
    14      14      0.667      -0.142 au  Si            1.00      2 P:y             1
                        (      -3.870 eV)
    15      15       --         0.079 au  Si            1.00      3 P:y             1
                        (       2.153 eV)
    16      16       --         0.724 au  Si            1.00      4 P:y             1
                        (      19.710 eV)
    17      17       --         8.464 au  Si            1.00      5 P:y             1
                        (     230.305 eV)
    18      18      2.000      -3.681 au  Si            1.00      1 P:z             1
                        (    -100.156 eV)
    19      19      0.667      -0.142 au  Si            1.00      2 P:z             1
                        (      -3.870 eV)
    20      20       --         0.079 au  Si            1.00      3 P:z             1
                        (       2.153 eV)
    21      21       --         0.724 au  Si            1.00      4 P:z             1
                        (      19.710 eV)
    22      22       --         8.464 au  Si            1.00      5 P:z             1
                        (     230.305 eV)
    23      23       --         0.410 au  Si            1.00      1 D:z2            1
                        (      11.149 eV)
    24      24       --         0.410 au  Si            1.00      1 D:x2-y2         1
                        (      11.149 eV)
    25      25       --         0.410 au  Si            1.00      1 D:xy            1
                        (      11.149 eV)
    26      26       --         0.410 au  Si            1.00      1 D:xz            1
                        (      11.149 eV)
    27      27       --         0.410 au  Si            1.00      1 D:yz            1
                        (      11.149 eV)
    28      28       --         1.101 au  Si            1.00      1 F:z3            1
                        (      29.954 eV)
    29      29       --         1.101 au  Si            1.00      1 F:z             1
                        (      29.954 eV)
    30      30       --         1.101 au  Si            1.00      1 F:xyz           1
                        (      29.954 eV)
    31      31       --         1.101 au  Si            1.00      1 F:z2x           1
                        (      29.954 eV)
    32      32       --         1.101 au  Si            1.00      1 F:z2y           1
                        (      29.954 eV)
    33      33       --         1.101 au  Si            1.00      1 F:x             1
                        (      29.954 eV)
    34      34       --         1.101 au  Si            1.00      1 F:y             1
                        (      29.954 eV)
    35      35      2.000     -10.347 au  C             1.00      1 S               2
                        (    -281.545 eV)
    36      36      2.000      -0.564 au  C             1.00      2 S               2
                        (     -15.345 eV)
    37      37       --         0.402 au  C             1.00      3 S               2
                        (      10.943 eV)
    38      38       --         5.509 au  C             1.00      4 S               2
                        (     149.900 eV)
    39      39       --        50.546 au  C             1.00      5 S               2
                        (    1375.418 eV)
    40      40      0.667      -0.188 au  C             1.00      1 P:x             2
                        (      -5.110 eV)
    41      41       --         0.191 au  C             1.00      2 P:x             2
                        (       5.204 eV)
    42      42       --         2.089 au  C             1.00      3 P:x             2
                        (      56.851 eV)
    43      43      0.667      -0.188 au  C             1.00      1 P:y             2
                        (      -5.110 eV)
    44      44       --         0.191 au  C             1.00      2 P:y             2
                        (       5.204 eV)
    45      45       --         2.089 au  C             1.00      3 P:y             2
                        (      56.851 eV)
    46      46      0.667      -0.188 au  C             1.00      1 P:z             2
                        (      -5.110 eV)
    47      47       --         0.191 au  C             1.00      2 P:z             2
                        (       5.204 eV)
    48      48       --         2.089 au  C             1.00      3 P:z             2
                        (      56.851 eV)
    49      49       --         1.292 au  C             1.00      1 D:z2            2
                        (      35.150 eV)
    50      50       --         1.292 au  C             1.00      1 D:x2-y2         2
                        (      35.150 eV)
    51      51       --         1.292 au  C             1.00      1 D:xy            2
                        (      35.150 eV)
    52      52       --         1.292 au  C             1.00      1 D:xz            2
                        (      35.150 eV)
    53      53       --         1.292 au  C             1.00      1 D:yz            2
                        (      35.150 eV)
    54      54       --         4.084 au  C             1.00      1 F:z3            2
                        (     111.144 eV)
    55      55       --         4.084 au  C             1.00      1 F:z             2
                        (     111.144 eV)
    56      56       --         4.084 au  C             1.00      1 F:xyz           2
                        (     111.144 eV)
    57      57       --         4.084 au  C             1.00      1 F:z2x           2
                        (     111.144 eV)
    58      58       --         4.084 au  C             1.00      1 F:z2y           2
                        (     111.144 eV)
    59      59       --         4.084 au  C             1.00      1 F:x             2
                        (     111.144 eV)
    60      60       --         4.084 au  C             1.00      1 F:y             2
                        (     111.144 eV)
    61      61      2.000     -10.347 au  C             1.00      1 S               3
                        (    -281.545 eV)
    62      62      2.000      -0.564 au  C             1.00      2 S               3
                        (     -15.345 eV)
    63      63       --         0.402 au  C             1.00      3 S               3
                        (      10.943 eV)
    64      64       --         5.509 au  C             1.00      4 S               3
                        (     149.900 eV)
    65      65       --        50.546 au  C             1.00      5 S               3
                        (    1375.418 eV)
    66      66      0.667      -0.188 au  C             1.00      1 P:x             3
                        (      -5.110 eV)
    67      67       --         0.191 au  C             1.00      2 P:x             3
                        (       5.204 eV)
    68      68       --         2.089 au  C             1.00      3 P:x             3
                        (      56.851 eV)
    69      69      0.667      -0.188 au  C             1.00      1 P:y             3
                        (      -5.110 eV)
    70      70       --         0.191 au  C             1.00      2 P:y             3
                        (       5.204 eV)
    71      71       --         2.089 au  C             1.00      3 P:y             3
                        (      56.851 eV)
    72      72      0.667      -0.188 au  C             1.00      1 P:z             3
                        (      -5.110 eV)
    73      73       --         0.191 au  C             1.00      2 P:z             3
                        (       5.204 eV)
    74      74       --         2.089 au  C             1.00      3 P:z             3
                        (      56.851 eV)
    75      75       --         1.292 au  C             1.00      1 D:z2            3
                        (      35.150 eV)
    76      76       --         1.292 au  C             1.00      1 D:x2-y2         3
                        (      35.150 eV)
    77      77       --         1.292 au  C             1.00      1 D:xy            3
                        (      35.150 eV)
    78      78       --         1.292 au  C             1.00      1 D:xz            3
                        (      35.150 eV)
    79      79       --         1.292 au  C             1.00      1 D:yz            3
                        (      35.150 eV)
    80      80       --         4.084 au  C             1.00      1 F:z3            3
                        (     111.144 eV)
    81      81       --         4.084 au  C             1.00      1 F:z             3
                        (     111.144 eV)
    82      82       --         4.084 au  C             1.00      1 F:xyz           3
                        (     111.144 eV)
    83      83       --         4.084 au  C             1.00      1 F:z2x           3
                        (     111.144 eV)
    84      84       --         4.084 au  C             1.00      1 F:z2y           3
                        (     111.144 eV)
    85      85       --         4.084 au  C             1.00      1 F:x             3
                        (     111.144 eV)
    86      86       --         4.084 au  C             1.00      1 F:y             3
                        (     111.144 eV)
    87      87      2.000     -10.347 au  C             1.00      1 S               4
                        (    -281.545 eV)
    88      88      2.000      -0.564 au  C             1.00      2 S               4
                        (     -15.345 eV)
    89      89       --         0.402 au  C             1.00      3 S               4
                        (      10.943 eV)
    90      90       --         5.509 au  C             1.00      4 S               4
                        (     149.900 eV)
    91      91       --        50.546 au  C             1.00      5 S               4
                        (    1375.418 eV)
    92      92      0.667      -0.188 au  C             1.00      1 P:x             4
                        (      -5.110 eV)
    93      93       --         0.191 au  C             1.00      2 P:x             4
                        (       5.204 eV)
    94      94       --         2.089 au  C             1.00      3 P:x             4
                        (      56.851 eV)
    95      95      0.667      -0.188 au  C             1.00      1 P:y             4
                        (      -5.110 eV)
    96      96       --         0.191 au  C             1.00      2 P:y             4
                        (       5.204 eV)
    97      97       --         2.089 au  C             1.00      3 P:y             4
                        (      56.851 eV)
    98      98      0.667      -0.188 au  C             1.00      1 P:z             4
                        (      -5.110 eV)
    99      99       --         0.191 au  C             1.00      2 P:z             4
                        (       5.204 eV)
   100     100       --         2.089 au  C             1.00      3 P:z             4
                        (      56.851 eV)
   101     101       --         1.292 au  C             1.00      1 D:z2            4
                        (      35.150 eV)
   102     102       --         1.292 au  C             1.00      1 D:x2-y2         4
                        (      35.150 eV)
   103     103       --         1.292 au  C             1.00      1 D:xy            4
                        (      35.150 eV)
   104     104       --         1.292 au  C             1.00      1 D:xz            4
                        (      35.150 eV)
   105     105       --         1.292 au  C             1.00      1 D:yz            4
                        (      35.150 eV)
   106     106       --         4.084 au  C             1.00      1 F:z3            4
                        (     111.144 eV)
   107     107       --         4.084 au  C             1.00      1 F:z             4
                        (     111.144 eV)
   108     108       --         4.084 au  C             1.00      1 F:xyz           4
                        (     111.144 eV)
   109     109       --         4.084 au  C             1.00      1 F:z2x           4
                        (     111.144 eV)
   110     110       --         4.084 au  C             1.00      1 F:z2y           4
                        (     111.144 eV)
   111     111       --         4.084 au  C             1.00      1 F:x             4
                        (     111.144 eV)
   112     112       --         4.084 au  C             1.00      1 F:y             4
                        (     111.144 eV)
   113     113      2.000     -10.347 au  C             1.00      1 S               5
                        (    -281.545 eV)
   114     114      2.000      -0.564 au  C             1.00      2 S               5
                        (     -15.345 eV)
   115     115       --         0.402 au  C             1.00      3 S               5
                        (      10.943 eV)
   116     116       --         5.509 au  C             1.00      4 S               5
                        (     149.900 eV)
   117     117       --        50.546 au  C             1.00      5 S               5
                        (    1375.418 eV)
   118     118      0.667      -0.188 au  C             1.00      1 P:x             5
                        (      -5.110 eV)
   119     119       --         0.191 au  C             1.00      2 P:x             5
                        (       5.204 eV)
   120     120       --         2.089 au  C             1.00      3 P:x             5
                        (      56.851 eV)
   121     121      0.667      -0.188 au  C             1.00      1 P:y             5
                        (      -5.110 eV)
   122     122       --         0.191 au  C             1.00      2 P:y             5
                        (       5.204 eV)
   123     123       --         2.089 au  C             1.00      3 P:y             5
                        (      56.851 eV)
   124     124      0.667      -0.188 au  C             1.00      1 P:z             5
                        (      -5.110 eV)
   125     125       --         0.191 au  C             1.00      2 P:z             5
                        (       5.204 eV)
   126     126       --         2.089 au  C             1.00      3 P:z             5
                        (      56.851 eV)
   127     127       --         1.292 au  C             1.00      1 D:z2            5
                        (      35.150 eV)
   128     128       --         1.292 au  C             1.00      1 D:x2-y2         5
                        (      35.150 eV)
   129     129       --         1.292 au  C             1.00      1 D:xy            5
                        (      35.150 eV)
   130     130       --         1.292 au  C             1.00      1 D:xz            5
                        (      35.150 eV)
   131     131       --         1.292 au  C             1.00      1 D:yz            5
                        (      35.150 eV)
   132     132       --         4.084 au  C             1.00      1 F:z3            5
                        (     111.144 eV)
   133     133       --         4.084 au  C             1.00      1 F:z             5
                        (     111.144 eV)
   134     134       --         4.084 au  C             1.00      1 F:xyz           5
                        (     111.144 eV)
   135     135       --         4.084 au  C             1.00      1 F:z2x           5
                        (     111.144 eV)
   136     136       --         4.084 au  C             1.00      1 F:z2y           5
                        (     111.144 eV)
   137     137       --         4.084 au  C             1.00      1 F:x             5
                        (     111.144 eV)
   138     138       --         4.084 au  C             1.00      1 F:y             5
                        (     111.144 eV)
   139     139      1.000      -0.244 au  H             1.00      1 S               6
                        (      -6.641 eV)
   140     140       --         0.104 au  H             1.00      2 S               6
                        (       2.836 eV)
   141     141       --         1.564 au  H             1.00      3 S               6
                        (      42.568 eV)
   142     142       --         0.436 au  H             1.00      1 P:x             6
                        (      11.864 eV)
   143     143       --         0.436 au  H             1.00      1 P:y             6
                        (      11.864 eV)
   144     144       --         0.436 au  H             1.00      1 P:z             6
                        (      11.864 eV)
   145     145       --         2.618 au  H             1.00      1 D:z2            6
                        (      71.229 eV)
   146     146       --         2.618 au  H             1.00      1 D:x2-y2         6
                        (      71.229 eV)
   147     147       --         2.618 au  H             1.00      1 D:xy            6
                        (      71.229 eV)
   148     148       --         2.618 au  H             1.00      1 D:xz            6
                        (      71.229 eV)
   149     149       --         2.618 au  H             1.00      1 D:yz            6
                        (      71.229 eV)
   150     150      1.000      -0.244 au  H             1.00      1 S               7
                        (      -6.641 eV)
   151     151       --         0.104 au  H             1.00      2 S               7
                        (       2.836 eV)
   152     152       --         1.564 au  H             1.00      3 S               7
                        (      42.568 eV)
   153     153       --         0.436 au  H             1.00      1 P:x             7
                        (      11.864 eV)
   154     154       --         0.436 au  H             1.00      1 P:y             7
                        (      11.864 eV)
   155     155       --         0.436 au  H             1.00      1 P:z             7
                        (      11.864 eV)
   156     156       --         2.618 au  H             1.00      1 D:z2            7
                        (      71.229 eV)
   157     157       --         2.618 au  H             1.00      1 D:x2-y2         7
                        (      71.229 eV)
   158     158       --         2.618 au  H             1.00      1 D:xy            7
                        (      71.229 eV)
   159     159       --         2.618 au  H             1.00      1 D:xz            7
                        (      71.229 eV)
   160     160       --         2.618 au  H             1.00      1 D:yz            7
                        (      71.229 eV)
   161     161      1.000      -0.244 au  H             1.00      1 S               8
                        (      -6.641 eV)
   162     162       --         0.104 au  H             1.00      2 S               8
                        (       2.836 eV)
   163     163       --         1.564 au  H             1.00      3 S               8
                        (      42.568 eV)
   164     164       --         0.436 au  H             1.00      1 P:x             8
                        (      11.864 eV)
   165     165       --         0.436 au  H             1.00      1 P:y             8
                        (      11.864 eV)
   166     166       --         0.436 au  H             1.00      1 P:z             8
                        (      11.864 eV)
   167     167       --         2.618 au  H             1.00      1 D:z2            8
                        (      71.229 eV)
   168     168       --         2.618 au  H             1.00      1 D:x2-y2         8
                        (      71.229 eV)
   169     169       --         2.618 au  H             1.00      1 D:xy            8
                        (      71.229 eV)
   170     170       --         2.618 au  H             1.00      1 D:xz            8
                        (      71.229 eV)
   171     171       --         2.618 au  H             1.00      1 D:yz            8
                        (      71.229 eV)
   172     172      1.000      -0.244 au  H             1.00      1 S               9
                        (      -6.641 eV)
   173     173       --         0.104 au  H             1.00      2 S               9
                        (       2.836 eV)
   174     174       --         1.564 au  H             1.00      3 S               9
                        (      42.568 eV)
   175     175       --         0.436 au  H             1.00      1 P:x             9
                        (      11.864 eV)
   176     176       --         0.436 au  H             1.00      1 P:y             9
                        (      11.864 eV)
   177     177       --         0.436 au  H             1.00      1 P:z             9
                        (      11.864 eV)
   178     178       --         2.618 au  H             1.00      1 D:z2            9
                        (      71.229 eV)
   179     179       --         2.618 au  H             1.00      1 D:x2-y2         9
                        (      71.229 eV)
   180     180       --         2.618 au  H             1.00      1 D:xy            9
                        (      71.229 eV)
   181     181       --         2.618 au  H             1.00      1 D:xz            9
                        (      71.229 eV)
   182     182       --         2.618 au  H             1.00      1 D:yz            9
                        (      71.229 eV)
   183     183      1.000      -0.244 au  H             1.00      1 S              10
                        (      -6.641 eV)
   184     184       --         0.104 au  H             1.00      2 S              10
                        (       2.836 eV)
   185     185       --         1.564 au  H             1.00      3 S              10
                        (      42.568 eV)
   186     186       --         0.436 au  H             1.00      1 P:x            10
                        (      11.864 eV)
   187     187       --         0.436 au  H             1.00      1 P:y            10
                        (      11.864 eV)
   188     188       --         0.436 au  H             1.00      1 P:z            10
                        (      11.864 eV)
   189     189       --         2.618 au  H             1.00      1 D:z2           10
                        (      71.229 eV)
   190     190       --         2.618 au  H             1.00      1 D:x2-y2        10
                        (      71.229 eV)
   191     191       --         2.618 au  H             1.00      1 D:xy           10
                        (      71.229 eV)
   192     192       --         2.618 au  H             1.00      1 D:xz           10
                        (      71.229 eV)
   193     193       --         2.618 au  H             1.00      1 D:yz           10
                        (      71.229 eV)
   194     194      1.000      -0.244 au  H             1.00      1 S              11
                        (      -6.641 eV)
   195     195       --         0.104 au  H             1.00      2 S              11
                        (       2.836 eV)
   196     196       --         1.564 au  H             1.00      3 S              11
                        (      42.568 eV)
   197     197       --         0.436 au  H             1.00      1 P:x            11
                        (      11.864 eV)
   198     198       --         0.436 au  H             1.00      1 P:y            11
                        (      11.864 eV)
   199     199       --         0.436 au  H             1.00      1 P:z            11
                        (      11.864 eV)
   200     200       --         2.618 au  H             1.00      1 D:z2           11
                        (      71.229 eV)
   201     201       --         2.618 au  H             1.00      1 D:x2-y2        11
                        (      71.229 eV)
   202     202       --         2.618 au  H             1.00      1 D:xy           11
                        (      71.229 eV)
   203     203       --         2.618 au  H             1.00      1 D:xz           11
                        (      71.229 eV)
   204     204       --         2.618 au  H             1.00      1 D:yz           11
                        (      71.229 eV)
   205     205      1.000      -0.244 au  H             1.00      1 S              12
                        (      -6.641 eV)
   206     206       --         0.104 au  H             1.00      2 S              12
                        (       2.836 eV)
   207     207       --         1.564 au  H             1.00      3 S              12
                        (      42.568 eV)
   208     208       --         0.436 au  H             1.00      1 P:x            12
                        (      11.864 eV)
   209     209       --         0.436 au  H             1.00      1 P:y            12
                        (      11.864 eV)
   210     210       --         0.436 au  H             1.00      1 P:z            12
                        (      11.864 eV)
   211     211       --         2.618 au  H             1.00      1 D:z2           12
                        (      71.229 eV)
   212     212       --         2.618 au  H             1.00      1 D:x2-y2        12
                        (      71.229 eV)
   213     213       --         2.618 au  H             1.00      1 D:xy           12
                        (      71.229 eV)
   214     214       --         2.618 au  H             1.00      1 D:xz           12
                        (      71.229 eV)
   215     215       --         2.618 au  H             1.00      1 D:yz           12
                        (      71.229 eV)
   216     216      1.000      -0.244 au  H             1.00      1 S              13
                        (      -6.641 eV)
   217     217       --         0.104 au  H             1.00      2 S              13
                        (       2.836 eV)
   218     218       --         1.564 au  H             1.00      3 S              13
                        (      42.568 eV)
   219     219       --         0.436 au  H             1.00      1 P:x            13
                        (      11.864 eV)
   220     220       --         0.436 au  H             1.00      1 P:y            13
                        (      11.864 eV)
   221     221       --         0.436 au  H             1.00      1 P:z            13
                        (      11.864 eV)
   222     222       --         2.618 au  H             1.00      1 D:z2           13
                        (      71.229 eV)
   223     223       --         2.618 au  H             1.00      1 D:x2-y2        13
                        (      71.229 eV)
   224     224       --         2.618 au  H             1.00      1 D:xy           13
                        (      71.229 eV)
   225     225       --         2.618 au  H             1.00      1 D:xz           13
                        (      71.229 eV)
   226     226       --         2.618 au  H             1.00      1 D:yz           13
                        (      71.229 eV)
   227     227      1.000      -0.244 au  H             1.00      1 S              14
                        (      -6.641 eV)
   228     228       --         0.104 au  H             1.00      2 S              14
                        (       2.836 eV)
   229     229       --         1.564 au  H             1.00      3 S              14
                        (      42.568 eV)
   230     230       --         0.436 au  H             1.00      1 P:x            14
                        (      11.864 eV)
   231     231       --         0.436 au  H             1.00      1 P:y            14
                        (      11.864 eV)
   232     232       --         0.436 au  H             1.00      1 P:z            14
                        (      11.864 eV)
   233     233       --         2.618 au  H             1.00      1 D:z2           14
                        (      71.229 eV)
   234     234       --         2.618 au  H             1.00      1 D:x2-y2        14
                        (      71.229 eV)
   235     235       --         2.618 au  H             1.00      1 D:xy           14
                        (      71.229 eV)
   236     236       --         2.618 au  H             1.00      1 D:xz           14
                        (      71.229 eV)
   237     237       --         2.618 au  H             1.00      1 D:yz           14
                        (      71.229 eV)
   238     238      1.000      -0.244 au  H             1.00      1 S              15
                        (      -6.641 eV)
   239     239       --         0.104 au  H             1.00      2 S              15
                        (       2.836 eV)
   240     240       --         1.564 au  H             1.00      3 S              15
                        (      42.568 eV)
   241     241       --         0.436 au  H             1.00      1 P:x            15
                        (      11.864 eV)
   242     242       --         0.436 au  H             1.00      1 P:y            15
                        (      11.864 eV)
   243     243       --         0.436 au  H             1.00      1 P:z            15
                        (      11.864 eV)
   244     244       --         2.618 au  H             1.00      1 D:z2           15
                        (      71.229 eV)
   245     245       --         2.618 au  H             1.00      1 D:x2-y2        15
                        (      71.229 eV)
   246     246       --         2.618 au  H             1.00      1 D:xy           15
                        (      71.229 eV)
   247     247       --         2.618 au  H             1.00      1 D:xz           15
                        (      71.229 eV)
   248     248       --         2.618 au  H             1.00      1 D:yz           15
                        (      71.229 eV)
   249     249      1.000      -0.244 au  H             1.00      1 S              16
                        (      -6.641 eV)
   250     250       --         0.104 au  H             1.00      2 S              16
                        (       2.836 eV)
   251     251       --         1.564 au  H             1.00      3 S              16
                        (      42.568 eV)
   252     252       --         0.436 au  H             1.00      1 P:x            16
                        (      11.864 eV)
   253     253       --         0.436 au  H             1.00      1 P:y            16
                        (      11.864 eV)
   254     254       --         0.436 au  H             1.00      1 P:z            16
                        (      11.864 eV)
   255     255       --         2.618 au  H             1.00      1 D:z2           16
                        (      71.229 eV)
   256     256       --         2.618 au  H             1.00      1 D:x2-y2        16
                        (      71.229 eV)
   257     257       --         2.618 au  H             1.00      1 D:xy           16
                        (      71.229 eV)
   258     258       --         2.618 au  H             1.00      1 D:xz           16
                        (      71.229 eV)
   259     259       --         2.618 au  H             1.00      1 D:yz           16
                        (      71.229 eV)
   260     260      1.000      -0.244 au  H             1.00      1 S              17
                        (      -6.641 eV)
   261     261       --         0.104 au  H             1.00      2 S              17
                        (       2.836 eV)
   262     262       --         1.564 au  H             1.00      3 S              17
                        (      42.568 eV)
   263     263       --         0.436 au  H             1.00      1 P:x            17
                        (      11.864 eV)
   264     264       --         0.436 au  H             1.00      1 P:y            17
                        (      11.864 eV)
   265     265       --         0.436 au  H             1.00      1 P:z            17
                        (      11.864 eV)
   266     266       --         2.618 au  H             1.00      1 D:z2           17
                        (      71.229 eV)
   267     267       --         2.618 au  H             1.00      1 D:x2-y2        17
                        (      71.229 eV)
   268     268       --         2.618 au  H             1.00      1 D:xy           17
                        (      71.229 eV)
   269     269       --         2.618 au  H             1.00      1 D:xz           17
                        (      71.229 eV)
   270     270       --         2.618 au  H             1.00      1 D:yz           17
                        (      71.229 eV)



 ================================
 (Slater-type)  F U N C T I O N S  ***  (Basis and Fit)  ***
 ================================
  

 Atom Type    1  (Si)
 ==============

 Valence Basis Sets:  14
 -----------------------
   1 S   17.050000
   1 S   12.450000
   2 S    5.150000
   2 S    3.600000
   2 P    6.850000
   2 P    3.650000
   3 S    2.950000
   3 S    1.850000
   3 S    1.200000
   3 P    2.000000
   3 P    1.200000
   3 P    0.750000
   3 D    1.750000
   4 F    1.900000

 Charge Fitting Sets (for the computation of the Coulomb Potential):  30
 -----------------------------------------------------------------------
   1 S   34.100000
   1 S   20.150000
   2 S   22.060000
   2 S   14.690000
   3 S   14.370000
   3 S   10.190000
   3 S    7.230000
   4 S    6.780000
   4 S    5.010000
   4 S    3.700000
   5 S    3.410000
   5 S    2.590000
   5 S    1.970000
   5 S    1.500000
   2 P   23.900000
   3 P   17.130000
   4 P   12.310000
   4 P    7.080000
   5 P    5.140000
   5 P    3.120000
   5 P    1.890000
   3 D   18.400000
   4 D   12.380000
   4 D    6.680000
   5 D    4.570000
   5 D    2.620000
   5 D    1.500000
   4 F    5.000000
   4 F    3.000000
   5 G    3.880000

 Atom Type    2  (C)
 ==============

 Valence Basis Sets:  10
 -----------------------
   1 S    7.680000
   1 S    5.000000
   2 S    1.280000
   2 S    2.100000
   2 S    4.600000
   2 P    0.820000
   2 P    1.480000
   2 P    2.940000
   3 D    2.200000
   4 F    3.300000

 Charge Fitting Sets (for the computation of the Coulomb Potential):  22
 -----------------------------------------------------------------------
   1 S   15.360000
   2 S   17.530000
   2 S   12.070000
   2 S    8.310000
   2 S    5.730000
   3 S    5.780000
   3 S    4.220000
   3 S    3.080000
   3 S    2.250000
   3 S    1.640000
   2 P    9.880000
   2 P    5.800000
   3 P    5.050000
   3 P    3.230000
   3 P    2.060000
   3 D    7.200000
   3 D    4.400000
   3 D    2.690000
   3 D    1.640000
   4 F    5.400000
   4 F    3.550000
   5 G    4.500000

 Atom Type    3  (H)
 ==============

 Valence Basis Sets:   5
 -----------------------
   1 S    0.690000
   1 S    0.920000
   1 S    1.580000
   2 P    1.250000
   3 D    2.500000

 Charge Fitting Sets (for the computation of the Coulomb Potential):  11
 -----------------------------------------------------------------------
   1 S    3.160000
   1 S    2.090000
   1 S    1.380000
   2 S    1.500000
   2 P    4.000000
   2 P    2.650000
   2 P    1.750000
   3 D    4.000000
   3 D    2.500000
   4 F    3.000000
   5 G    4.000000


 BAS: List of all Elementary Cartesian Basis Functions
 =====================================================

 The numbering in the list below (to the right of the function characteristics) is referred
 to in print-outs of MO eigenvectors and Mulliken populations in the BAS representation
 (as contrasted to the SFO representation).

 Notes:
 1. The functions are characterized by a polynomial prefactor (powers of x,y,z and r) and
    an exponential decay factor alpha.
 2. Since the basis sets are specific for an atom TYPE, the individual functions occur on
    all atoms of that type.
 3. The word 'Core' in the left margin signals that it is a Core Function (CF) : not a
    degree of freedom in the valence set, but only used to ensure orthogonalization of
    the other valence basis functions on the frozen Core Orbitals.


 (power of) X  Y  Z  R     Alpha  on Atom
            ==========     =====     ==========

 Si                                   1
                                  ---------------------------------------------------------------------------
            0  0  0  0    17.050      1
            0  0  0  0    12.450      2
            0  0  0  1     5.150      3
            0  0  0  1     3.600      4
            1  0  0  0     6.850      5
            0  1  0  0     6.850      6
            0  0  1  0     6.850      7
            1  0  0  0     3.650      8
            0  1  0  0     3.650      9
            0  0  1  0     3.650     10
            0  0  0  2     2.950     11
            0  0  0  2     1.850     12
            0  0  0  2     1.200     13
            1  0  0  1     2.000     14
            0  1  0  1     2.000     15
            0  0  1  1     2.000     16
            1  0  0  1     1.200     17
            0  1  0  1     1.200     18
            0  0  1  1     1.200     19
            1  0  0  1     0.750     20
            0  1  0  1     0.750     21
            0  0  1  1     0.750     22
            2  0  0  0     1.750     23
            1  1  0  0     1.750     24
            1  0  1  0     1.750     25
            0  2  0  0     1.750     26
            0  1  1  0     1.750     27
            0  0  2  0     1.750     28
            3  0  0  0     1.900     29
            2  1  0  0     1.900     30
            2  0  1  0     1.900     31
            1  2  0  0     1.900     32
            1  1  1  0     1.900     33
            1  0  2  0     1.900     34
            0  3  0  0     1.900     35
            0  2  1  0     1.900     36
            0  1  2  0     1.900     37
            0  0  3  0     1.900     38

 C                                    2    3    4    5
                                  ---------------------------------------------------------------------------
            0  0  0  0     7.680     39   69   99  129
            0  0  0  0     5.000     40   70  100  130
            0  0  0  1     1.280     41   71  101  131
            0  0  0  1     2.100     42   72  102  132
            0  0  0  1     4.600     43   73  103  133
            1  0  0  0     0.820     44   74  104  134
            0  1  0  0     0.820     45   75  105  135
            0  0  1  0     0.820     46   76  106  136
            1  0  0  0     1.480     47   77  107  137
            0  1  0  0     1.480     48   78  108  138
            0  0  1  0     1.480     49   79  109  139
            1  0  0  0     2.940     50   80  110  140
            0  1  0  0     2.940     51   81  111  141
            0  0  1  0     2.940     52   82  112  142
            2  0  0  0     2.200     53   83  113  143
            1  1  0  0     2.200     54   84  114  144
            1  0  1  0     2.200     55   85  115  145
            0  2  0  0     2.200     56   86  116  146
            0  1  1  0     2.200     57   87  117  147
            0  0  2  0     2.200     58   88  118  148
            3  0  0  0     3.300     59   89  119  149
            2  1  0  0     3.300     60   90  120  150
            2  0  1  0     3.300     61   91  121  151
            1  2  0  0     3.300     62   92  122  152
            1  1  1  0     3.300     63   93  123  153
            1  0  2  0     3.300     64   94  124  154
            0  3  0  0     3.300     65   95  125  155
            0  2  1  0     3.300     66   96  126  156
            0  1  2  0     3.300     67   97  127  157
            0  0  3  0     3.300     68   98  128  158

 H                                    6    7    8    9   10   11   12   13   14   15   16   17
                                  ---------------------------------------------------------------------------
            0  0  0  0     0.690    159  171  183  195  207  219  231  243  255  267  279  291
            0  0  0  0     0.920    160  172  184  196  208  220  232  244  256  268  280  292
            0  0  0  0     1.580    161  173  185  197  209  221  233  245  257  269  281  293
            1  0  0  0     1.250    162  174  186  198  210  222  234  246  258  270  282  294
            0  1  0  0     1.250    163  175  187  199  211  223  235  247  259  271  283  295
            0  0  1  0     1.250    164  176  188  200  212  224  236  248  260  272  284  296
            2  0  0  0     2.500    165  177  189  201  213  225  237  249  261  273  285  297
            1  1  0  0     2.500    166  178  190  202  214  226  238  250  262  274  286  298
            1  0  1  0     2.500    167  179  191  203  215  227  239  251  263  275  287  299
            0  2  0  0     2.500    168  180  192  204  216  228  240  252  264  276  288  300
            0  1  1  0     2.500    169  181  193  205  217  229  241  253  265  277  289  301
            0  0  2  0     2.500    170  182  194  206  218  230  242  254  266  278  290  302

 Total number of charge fitting functions (nprimf)      1042
 Total number of Cartesian basis functions (naos)        302
[...]
                              -0.544     0.494     0.679
                        -----------------------------------
 
================================================================================
 
 
===  TOTAL NMR SHIELDING TENSOR (ppm)
 
                        ***********************************
                        CARTESIAN AXIS REPRESENTATION

                        ==== total shielding tensor
                        -----------------------------------
                              33.681    -1.698    -4.416
                              -1.698    29.172     0.465
                              -4.416     0.465    32.207
                        -----------------------------------
                                  isotropic =     31.687

                        ***********************************
                        -----------------------------------
                        PRINCIPAL AXIS REPRESENTATION

                        ==== Principal components:

                              27.911    29.427    37.721
 
                        ==== Principal Axis System:

                               0.591    -0.271     0.759
                               0.596     0.781    -0.185
                               0.543    -0.562    -0.624
                        -----------------------------------
################################################################################
********************************************************************************
****  N U C L E U S : H(15)
 
 ADF-GUI atom: H(15)
 Internal NMR numbering of atoms: H(15)
 
 
================================================================================
 
 
===  PARAMAGNETIC NMR SHIELDING TENSORS (ppm)
 
    ===     paramagnetic b^(1) tensor       ===     paramagnetic u^(1) tensor
    -----------------------------------     -----------------------------------
           0.000     0.000     0.000               8.638     0.153    -2.403
           0.000     0.000     0.000               0.153     6.492    -1.180
           0.000     0.000     0.000              -2.403    -1.180   -17.359
    -----------------------------------     -----------------------------------
              isotropic =      0.000                  isotropic =     -0.743

    ===     paramagnetic s^(1) tensor       ===     paramagnetic gauge tensor
    -----------------------------------     -----------------------------------
          -7.719    -0.279     2.077               1.713    -0.004    -0.139
          -0.279    -4.724     1.219              -0.004     1.703    -0.067
           2.077     1.219    21.220              -0.139    -0.067     0.342
    -----------------------------------     -----------------------------------
              isotropic =      2.926                  isotropic =      1.253

                        ***********************************
                        CARTESIAN AXIS REPRESENTATION

                        ==== total paramagnetic tensor
                        -----------------------------------
                               2.632    -0.130    -0.466
                              -0.130     3.470    -0.028
                              -0.466    -0.028     4.204
                        -----------------------------------
                                  isotropic =      3.435

                        ***********************************
                        -----------------------------------
                        PRINCIPAL AXIS REPRESENTATION

                        ==== Principal components:

                               2.486     3.488     4.331
 
                        ==== Principal Axis System:

                              -0.956     0.127    -0.265
                              -0.134    -0.991     0.009
                              -0.261     0.044     0.964
                        -----------------------------------
 
================================================================================
 
 
===  DIAMAGNETIC NMR SHIELDING TENSORS (ppm)
 
    ===       diamagnetic core tensor       ===    diamagnetic valence tensor
    -----------------------------------     -----------------------------------
           0.000     0.000     0.000              27.190     0.416     2.243
           0.000     0.000     0.000               0.416    24.479     0.592
           0.000     0.000     0.000               2.243     0.592    33.071
    -----------------------------------     -----------------------------------
              isotropic =      0.000                  isotropic =     28.247

                        ***********************************
                        CARTESIAN AXIS REPRESENTATION

                        ==== total diamagnetic tensor
                        -----------------------------------
                              27.190     0.416     2.243
                               0.416    24.479     0.592
                               2.243     0.592    33.071
                        -----------------------------------
                                  isotropic =     28.247

                        ***********************************
                        -----------------------------------
                        PRINCIPAL AXIS REPRESENTATION

                        ==== Principal components:

                              24.407    26.453    33.880
 
                        ==== Principal Axis System:

                               0.118    -0.940     0.321
                              -0.992    -0.100     0.074
                               0.037     0.327     0.944
                        -----------------------------------
 
================================================================================
 
 
===  TOTAL NMR SHIELDING TENSOR (ppm)
 
                        ***********************************
                        CARTESIAN AXIS REPRESENTATION

                        ==== total shielding tensor
                        -----------------------------------
                              29.822     0.285     1.777
                               0.285    27.949     0.564
                               1.777     0.564    37.275
                        -----------------------------------
                                  isotropic =     31.682

                        ***********************************
                        -----------------------------------
                        PRINCIPAL AXIS REPRESENTATION

                        ==== Principal components:

                              27.895    29.435    37.715
 
                        ==== Principal Axis System:

                               0.111    -0.969     0.221
                              -0.993    -0.100     0.063
                               0.039     0.227     0.973
                        -----------------------------------
################################################################################
********************************************************************************
****  N U C L E U S : H(16)
 
 ADF-GUI atom: H(16)
 Internal NMR numbering of atoms: H(16)
 
 
================================================================================
 
 
===  PARAMAGNETIC NMR SHIELDING TENSORS (ppm)
 
    ===     paramagnetic b^(1) tensor       ===     paramagnetic u^(1) tensor
    -----------------------------------     -----------------------------------
           0.000     0.000     0.000              -8.689    10.617     4.928
           0.000     0.000     0.000              10.617     0.218    -4.644
           0.000     0.000     0.000               4.928    -4.644     6.228
    -----------------------------------     -----------------------------------
              isotropic =      0.000                  isotropic =     -0.748

    ===     paramagnetic s^(1) tensor       ===     paramagnetic gauge tensor
    -----------------------------------     -----------------------------------
          11.851   -11.312    -5.673               0.838     0.601     0.286
         -11.312     1.482     5.483               0.601     1.298    -0.208
          -5.673     5.483    -4.579               0.286    -0.208     1.623
    -----------------------------------     -----------------------------------
              isotropic =      2.918                  isotropic =      1.253

                        ***********************************
                        CARTESIAN AXIS REPRESENTATION

                        ==== total paramagnetic tensor
                        -----------------------------------
                               3.999    -0.094    -0.459
                              -0.094     2.997     0.631
                              -0.459     0.631     3.273
                        -----------------------------------
                                  isotropic =      3.423

                        ***********************************
                        -----------------------------------
                        PRINCIPAL AXIS REPRESENTATION

                        ==== Principal components:

                               2.456     3.476     4.337
 
                        ==== Principal Axis System:

                               0.150     0.585     0.797
                              -0.739     0.601    -0.303
                               0.656     0.544    -0.523
                        -----------------------------------
 
================================================================================
 
 
===  DIAMAGNETIC NMR SHIELDING TENSORS (ppm)
 
    ===       diamagnetic core tensor       ===    diamagnetic valence tensor
    -----------------------------------     -----------------------------------
           0.000     0.000     0.000              29.818    -4.394    -1.072
           0.000     0.000     0.000              -4.394    29.041    -0.288
           0.000     0.000     0.000              -1.072    -0.288    25.891
    -----------------------------------     -----------------------------------
              isotropic =      0.000                  isotropic =     28.250

                        ***********************************
                        CARTESIAN AXIS REPRESENTATION

                        ==== total diamagnetic tensor
                        -----------------------------------
                              29.818    -4.394    -1.072
                              -4.394    29.041    -0.288
                              -1.072    -0.288    25.891
                        -----------------------------------
                                  isotropic =     28.250

                        ***********************************
                        -----------------------------------
                        PRINCIPAL AXIS REPRESENTATION

                        ==== Principal components:

                              24.410    26.454    33.886
 
                        ==== Principal Axis System:

                              -0.591    -0.318     0.741
                              -0.595    -0.448    -0.667
                              -0.544     0.836    -0.075
                        -----------------------------------
 
================================================================================
 
 
===  TOTAL NMR SHIELDING TENSOR (ppm)
 
                        ***********************************
                        CARTESIAN AXIS REPRESENTATION

                        ==== total shielding tensor
                        -----------------------------------
                              33.817    -4.488    -1.532
                              -4.488    32.038     0.343
                              -1.532     0.343    29.164
                        -----------------------------------
                                  isotropic =     31.673

                        ***********************************
                        -----------------------------------
                        PRINCIPAL AXIS REPRESENTATION

                        ==== Principal components:

                              27.886    29.399    37.734
 
                        ==== Principal Axis System:

                               0.590    -0.242     0.770
                               0.593    -0.518    -0.617
                               0.548     0.820    -0.162
                        -----------------------------------
################################################################################
********************************************************************************
****  N U C L E U S : H(17)
 
 ADF-GUI atom: H(17)
 Internal NMR numbering of atoms: H(17)
 
 
================================================================================
 
 
===  PARAMAGNETIC NMR SHIELDING TENSORS (ppm)
 
    ===     paramagnetic b^(1) tensor       ===     paramagnetic u^(1) tensor
    -----------------------------------     -----------------------------------
           0.000     0.000     0.000              -3.389   -11.287     4.507
           0.000     0.000     0.000             -11.287    -4.215     6.321
           0.000     0.000     0.000               4.507     6.321     5.555
    -----------------------------------     -----------------------------------
              isotropic =      0.000                  isotropic =     -0.683

    ===     paramagnetic s^(1) tensor       ===     paramagnetic gauge tensor
    -----------------------------------     -----------------------------------
           6.177    12.108    -5.003               1.135    -0.623     0.240
          12.108     6.300    -7.363              -0.623     1.027     0.323
          -5.003    -7.363    -3.549               0.240     0.323     1.533
    -----------------------------------     -----------------------------------
              isotropic =      2.976                  isotropic =      1.232

                        ***********************************
                        CARTESIAN AXIS REPRESENTATION

                        ==== total paramagnetic tensor
                        -----------------------------------
                               3.923     0.198    -0.256
                               0.198     3.111    -0.720
                              -0.256    -0.720     3.539
                        -----------------------------------
                                  isotropic =      3.524

                        ***********************************
                        -----------------------------------
                        PRINCIPAL AXIS REPRESENTATION

                        ==== Principal components:

                               2.574     3.667     4.332
 
                        ==== Principal Axis System:

                               0.004     0.785    -0.620
                              -0.802    -0.367    -0.471
                              -0.597     0.499     0.628
                        -----------------------------------
 
================================================================================
 
 
===  DIAMAGNETIC NMR SHIELDING TENSORS (ppm)
 
    ===       diamagnetic core tensor       ===    diamagnetic valence tensor
    -----------------------------------     -----------------------------------
           0.000     0.000     0.000              27.775     3.987    -1.394
           0.000     0.000     0.000               3.987    31.077    -0.317
           0.000     0.000     0.000              -1.394    -0.317    25.886
    -----------------------------------     -----------------------------------
              isotropic =      0.000                  isotropic =     28.246

                        ***********************************
                        CARTESIAN AXIS REPRESENTATION

                        ==== total diamagnetic tensor
                        -----------------------------------
                              27.775     3.987    -1.394
                               3.987    31.077    -0.317
                              -1.394    -0.317    25.886
                        -----------------------------------
                                  isotropic =     28.246

                        ***********************************
                        -----------------------------------
                        PRINCIPAL AXIS REPRESENTATION

                        ==== Principal components:

                              24.404    26.456    33.878
 
                        ==== Principal Axis System:

                              -0.710    -0.424    -0.563
                               0.396     0.421    -0.816
                              -0.583     0.802     0.131
                        -----------------------------------
 
================================================================================
 
 
===  TOTAL NMR SHIELDING TENSOR (ppm)
 
                        ***********************************
                        CARTESIAN AXIS REPRESENTATION

                        ==== total shielding tensor
                        -----------------------------------
                              31.698     4.185    -1.650
                               4.185    34.189    -1.037
                              -1.650    -1.037    29.426
                        -----------------------------------
                                  isotropic =     31.771

                        ***********************************
                        -----------------------------------
                        PRINCIPAL AXIS REPRESENTATION

                        ==== Principal components:

                              28.078    29.523    37.711
 
                        ==== Principal Axis System:

                               0.717    -0.360    -0.597
                              -0.394     0.498    -0.773
                               0.575     0.789     0.216
                        -----------------------------------
 *******************************************************************************

                             N M R   E X I T
 NORMAL TERMINATION



 =================
 Timing Statistics
 =================
  
 Total Used :                     CPU=      167.66      System=        3.53     Elapsed=      177.94

 Calls  Section                     ( Mean, Percentage )
 ---------------------------------------------------------------------------------------------------
     3  ><      ................      0.00    0.00             0.00    0.01             0.00    0.00
     1  INIT    ................      0.58    0.35             0.02    0.60             0.60    0.34
     1  RDEIGX  ................     40.82   24.34             0.61   17.39            42.84   24.07
     1  AOF1K   ................      3.07    1.83             0.02    0.54             3.14    1.76
    16  AOPKK   ................      3.43   32.71             0.16   70.50             3.70   33.29
    16  XSIGP   ................      0.02    0.17             0.00    0.59             0.02    0.18
    16  AODKKK  ................      4.25   40.53             0.02    9.70             4.48   40.24
    16  XDV     ................      0.01    0.07             0.00    0.43             0.01    0.08
    16  XSIGD   ................      0.00    0.00             0.00    0.00             0.00    0.00
     1  EXIT PROCEDURE .........      0.00    0.00             0.01    0.25             0.04    0.02


 Currently Open Files (EXIT00)
 ====================

 Unit    Access Format  Status   Type       Ident (file)
 -------------------------------------------------------
   3      SEQ    FORM   TRANSP  NORMAL      LOGFILE
                                          ( /home/milias/Work/projects/open-collection/theoretical_chemistry/projects/nmr_diplomovky/reference_compounds/tetramethylsilane/ams/b3lyp_tz2p_good/cosmo-h2o/TMS.geopt_freq_nmrshield_b3lyp_tz2p_good_cosmo-h2o.logfile )
