 argument  1 = /home/milias/Work/open-collection/theoretical_chemistry/projects/nmr_diplomovky/reference_compounds/phosphoric_acid/nwchem/cosmo-h2o/h3po4.geopt_freq_nmrshield_b3lyp_6-311++g2d_2p_cosmo-h2o.nw
 


============================== echo of input deck ==============================
echo

start molecule

# https://nwchemgit.github.io/Memory.html
memory total 40 gb

print low

title "VX"
charge 0

geometry units angstroms print xyz autosym
  load format xyz h3po4_startgeom.xyz
end

basis
  * library 6-311++G(2d,2p)
end

dft
  #grid fine
  grid huge
  xc b3lyp
  mult 1
# Reduce output during geometry optimization
  noprint "final vectors analysis"
end

driver
  clear
  tight
  linopt 0
  maxiter 9999
  xyz h3po4_geom
end

property
  giao
  shielding
end

cosmo
  solvent h2o
end

task dft optimize
task dft freq
task dft property

================================================================================


                                         
                                         
 
 
             Northwest Computational Chemistry Package (NWChem) 7.0.1
             --------------------------------------------------------
 
 
                    Environmental Molecular Sciences Laboratory
                       Pacific Northwest National Laboratory
                                Richland, WA 99352
 
                              Copyright (c) 1994-2020
                       Pacific Northwest National Laboratory
                            Battelle Memorial Institute
 
             NWChem is an open-source computational chemistry package
                        distributed under the terms of the
                      Educational Community License (ECL) 2.0
             A copy of the license is included with this distribution
                              in the LICENSE.TXT file
 
                                  ACKNOWLEDGMENT
                                  --------------

            This software and its documentation were developed at the
            EMSL at Pacific Northwest National Laboratory, a multiprogram
            national laboratory, operated for the U.S. Department of Energy
            by Battelle under Contract Number DE-AC05-76RL01830. Support
            for this work was provided by the Department of Energy Office
            of Biological and Environmental Research, Office of Basic
            Energy Sciences, and the Office of Advanced Scientific Computing.


           Job information
           ---------------

    hostname        = comp20
    program         = /home/milias/Work/qch/software/nwchem_suite/nwchem_master/bin/LINUX64/nwchem
    date            = Thu Mar  4 01:08:47 2021

    compiled        = Sun_Jan_31_23:21:07_2021
    source          = /home/milias/Work/qch/software/nwchem_suite/nwchem_master
    nwchem branch   = 7.0.0
    nwchem revision = nwchem_on_git-2308-gc943026
    ga revision     = 5.8.0
    use scalapack   = F
    input           = /home/milias/Work/open-collection/theoretical_chemistry/projects/nmr_diplomovky/reference_compounds/phosphoric_acid/nwchem/cosmo-h2o/h3po4.geopt_freq_nmrshield_b3lyp_6-311++g2d_2p_cosmo-h2o.nw
    prefix          = molecule.
    data base       = ./molecule.db
    status          = startup
    nproc           =       12
    time left       =     -1s



           Memory information
           ------------------

    heap     = 1342177274 doubles =  10240.0 Mbytes
    stack    = 1342177279 doubles =  10240.0 Mbytes
    global   = 2684354560 doubles =  20480.0 Mbytes (distinct from heap & stack)
    total    = 5368709113 doubles =  40960.0 Mbytes
    verify   = yes
    hardfail = no 


           Directory information
           ---------------------
 
  0 permanent = .
  0 scratch   = .
 
 
 
 
                                NWChem Input Module
                                -------------------
 
 
                                        VX
                                        --

 Scaling coordinates for geometry "geometry" by  1.889725989
 (inverse scale =  0.529177249)


          ------
          auto-z
          ------
  no constraints, skipping   0.000000000000000E+000
  no constraints, skipping   0.000000000000000E+000
 
 
                             Geometry "geometry" -> ""
                             -------------------------
 
 Output coordinates in angstroms (scale by  1.889725989 to convert to a.u.)
 
  No.       Tag          Charge          X              Y              Z
 ---- ---------------- ---------- -------------- -------------- --------------
    1 P                   15.0000     0.00000000     0.00000000     0.10854789
    2 O                    8.0000    -1.22532430    -0.71445342    -0.57760507
    3 O                    8.0000    -0.00607266     1.41838868    -0.57760507
    4 O                    8.0000     1.23139696    -0.70393527    -0.57760507
    5 O                    8.0000     0.00000000    -0.00000000     1.57783180
    6 H                    1.0000    -1.50776086    -1.52171086    -0.12945040
    7 H                    1.0000    -0.56395983     2.06661463    -0.12945040
    8 H                    1.0000     2.07172069    -0.54490378    -0.12945040
 
      Atomic Mass 
      ----------- 
 
      P                 30.973760
      O                 15.994910
      H                  1.007825
 

 Effective nuclear repulsion energy (a.u.)     282.3241605007

            Nuclear Dipole moment (a.u.) 
            ----------------------------
        X                 Y               Z
 ---------------- ---------------- ----------------
    -0.0000000000     0.0000000000     0.0000000000
 
      Symmetry information
      --------------------
 
 Group name             C3        
 Group number              5
 Group order               3
 No. of unique centers     4
 
      Symmetry unique atoms
 
     1    2    5    6
 


                                Z-matrix (autoz)
                                -------- 

 Units are Angstrom for bonds and degrees for angles
 
      Type          Name      I     J     K     L     M      Value
      ----------- --------  ----- ----- ----- ----- ----- ----------
    1 Stretch                  1     2                       1.57565
    2 Stretch                  1     3                       1.57565
    3 Stretch                  1     4                       1.57565
    4 Stretch                  1     5                       1.46928
    5 Stretch                  2     6                       0.96555
    6 Stretch                  3     7                       0.96555
    7 Stretch                  4     8                       0.96555
    8 Bend                     1     2     6               113.85697
    9 Bend                     1     3     7               113.85697
   10 Bend                     1     4     8               113.85697
   11 Bend                     2     1     3               102.44748
   12 Bend                     2     1     4               102.44748
   13 Bend                     2     1     5               115.81541
   14 Bend                     3     1     4               102.44748
   15 Bend                     3     1     5               115.81541
   16 Bend                     4     1     5               115.81541
   17 Torsion                  2     1     3     7          88.07700
   18 Torsion                  2     1     4     8        -165.97472
   19 Torsion                  3     1     2     6        -165.97472
   20 Torsion                  3     1     4     8          88.07700
   21 Torsion                  4     1     2     6          88.07700
   22 Torsion                  4     1     3     7        -165.97472
   23 Torsion                  5     1     2     6         -38.94886
   24 Torsion                  5     1     3     7         -38.94886
   25 Torsion                  5     1     4     8         -38.94886
 
 
            XYZ format geometry
            -------------------
     8
 geometry
 P                     0.00000000     0.00000000     0.10854789
 O                    -1.22532430    -0.71445342    -0.57760507
 O                    -0.00607266     1.41838868    -0.57760507
 O                     1.23139696    -0.70393527    -0.57760507
 O                     0.00000000    -0.00000000     1.57783180
 H                    -1.50776086    -1.52171086    -0.12945040
 H                    -0.56395983     2.06661463    -0.12945040
 H                     2.07172069    -0.54490378    -0.12945040
 
 ==============================================================================
                                internuclear distances
 ------------------------------------------------------------------------------
       center one      |      center two      | atomic units |  angstroms
 ------------------------------------------------------------------------------
    2 O                |   1 P                |     2.97754  |     1.57565
    3 O                |   1 P                |     2.97754  |     1.57565
    4 O                |   1 P                |     2.97754  |     1.57565
    5 O                |   1 P                |     2.77654  |     1.46928
    6 H                |   2 O                |     1.82462  |     0.96555
    7 H                |   3 O                |     1.82462  |     0.96555
    8 H                |   4 O                |     1.82462  |     0.96555
 ------------------------------------------------------------------------------
                         number of included internuclear distances:          7
 ==============================================================================



 ==============================================================================
                                 internuclear angles
 ------------------------------------------------------------------------------
        center 1       |       center 2       |       center 3       |  degrees
 ------------------------------------------------------------------------------
    2 O                |   1 P                |   3 O                |   102.45
    2 O                |   1 P                |   4 O                |   102.45
    2 O                |   1 P                |   5 O                |   115.82
    3 O                |   1 P                |   4 O                |   102.45
    3 O                |   1 P                |   5 O                |   115.82
    4 O                |   1 P                |   5 O                |   115.82
    1 P                |   2 O                |   6 H                |   113.86
    1 P                |   3 O                |   7 H                |   113.86
    1 P                |   4 O                |   8 H                |   113.86
 ------------------------------------------------------------------------------
                            number of included internuclear angles:          9
 ==============================================================================



  library name resolved from: environment
  library file name is: </usr/share/nwchem/libraries/>
  


 Summary of "ao basis" -> "" (cartesian)
 ------------------------------------------------------------------------------
       Tag                 Description            Shells   Functions and Types
 ---------------- ------------------------------  ------  ---------------------
 *                      6-311++G(2d,2p)               on all atoms 


 
  Deleted DRIVER restart files 
 
 
 
                           NWChem Geometry Optimization
                           ----------------------------
 
 
 
 
                                        VX
 
 
  no constraints, skipping   0.000000000000000E+000
 maximum gradient threshold         (gmax) =   0.000015
 rms gradient threshold             (grms) =   0.000010
 maximum cartesian step threshold   (xmax) =   0.000060
 rms cartesian step threshold       (xrms) =   0.000040
 fixed trust radius                (trust) =   0.300000
 maximum step size to saddle      (sadstp) =   0.100000
 energy precision                  (eprec) =   5.0D-06
 maximum number of steps          (nptopt) = 9999
 initial hessian option           (inhess) =    0
 line search option               (linopt) =    0
 hessian update option            (modupd) =    1
 saddle point option              (modsad) =    0
 initial eigen-mode to follow     (moddir) =    0
 initial variable to follow       (vardir) =    0
 follow first negative mode     (firstneg) =    T
 apply conjugacy                    (opcg) =    F
 source of zmatrix                         =   autoz   


          -------------------
          Energy Minimization
          -------------------

 
 Names of Z-matrix variables 
    1              2              3              4              5         
    6              7              8              9             10         
   11             12             13             14             15         
   16             17             18             19             20         
   21             22             23             24             25         
 
 Variables with the same non-blank name are constrained to be equal
 
 
 Using diagonal initial Hessian 
 Scaling for Hessian diagonals: bonds = 1.00  angles = 0.25  torsions = 0.10

          --------
          Step   0
          --------
 
                                 NWChem DFT Module
                                 -----------------
 
 
                                        VX
 
 
                      Basis "ao basis" -> "ao basis" (cartesian)
                      -----
  P (Phosphorous)
  ---------------
            Exponent  Coefficients 
       -------------- ---------------------------------------------------------
  1 S  7.74924000E+04  0.000781
  1 S  1.16058000E+04  0.006068
  1 S  2.64596000E+03  0.031160
  1 S  7.54976000E+02  0.123431
  1 S  2.48755000E+02  0.378209
  1 S  9.11565000E+01  0.563262
 
  2 S  9.11565000E+01  0.160255
  2 S  3.62257000E+01  0.627647
  2 S  1.52113000E+01  0.263849
 
  3 S  4.79417000E+00  1.000000
 
  4 S  1.80793000E+00  1.000000
 
  5 S  3.56816000E-01  1.000000
 
  6 S  1.14783000E-01  1.000000
 
  7 P  3.84843000E+02  0.009206
  7 P  9.05521000E+01  0.069874
  7 P  2.91339000E+01  0.292470
  7 P  1.08862000E+01  0.728103
 
  8 P  4.35259000E+00  0.628349
  8 P  1.77706000E+00  0.428044
 
  9 P  6.97005000E-01  1.000000
 
 10 P  2.53532000E-01  1.000000
 
 11 P  6.84930000E-02  1.000000
 
 12 S  3.48000000E-02  1.000000
 
 13 P  3.48000000E-02  1.000000
 
 14 D  1.10000000E+00  1.000000
 
 15 D  2.75000000E-01  1.000000
 
  O (Oxygen)
  ----------
            Exponent  Coefficients 
       -------------- ---------------------------------------------------------
  1 S  8.58850000E+03  0.001895
  1 S  1.29723000E+03  0.014386
  1 S  2.99296000E+02  0.070732
  1 S  8.73771000E+01  0.240001
  1 S  2.56789000E+01  0.594797
  1 S  3.74004000E+00  0.280802
 
  2 S  4.21175000E+01  0.113889
  2 S  9.62837000E+00  0.920811
  2 S  2.85332000E+00 -0.003274
 
  3 P  4.21175000E+01  0.036511
  3 P  9.62837000E+00  0.237153
  3 P  2.85332000E+00  0.819702
 
  4 S  9.05661000E-01  1.000000
 
  5 P  9.05661000E-01  1.000000
 
  6 S  2.55611000E-01  1.000000
 
  7 P  2.55611000E-01  1.000000
 
  8 S  8.45000000E-02  1.000000
 
  9 P  8.45000000E-02  1.000000
 
 10 D  2.58400000E+00  1.000000
 
 11 D  6.46000000E-01  1.000000
 
  H (Hydrogen)
  ------------
            Exponent  Coefficients 
       -------------- ---------------------------------------------------------
  1 S  3.38650000E+01  0.025494
  1 S  5.09479000E+00  0.190373
  1 S  1.15879000E+00  0.852161
 
  2 S  3.25840000E-01  1.000000
 
  3 S  1.02741000E-01  1.000000
 
  4 S  3.60000000E-02  1.000000
 
  5 P  1.50000000E+00  1.000000
 
  6 P  3.75000000E-01  1.000000
 


 Summary of "ao basis" -> "ao basis" (cartesian)
 ------------------------------------------------------------------------------
       Tag                 Description            Shells   Functions and Types
 ---------------- ------------------------------  ------  ---------------------
 P                      6-311++G(2d,2p)             15       37   7s6p2d
 O                      6-311++G(2d,2p)             11       29   5s4p2d
 H                      6-311++G(2d,2p)              6       10   4s2p


 
 
 solvent parameters
 solvname_short: h2o     
 solvname_long:  water                              
 dielec:       78.4000
 dielecinf:     1.7769

          ---------------
          -cosmo- solvent
          ---------------
 Cosmo: York-Karplus, doi: 10.1021/jp992097l
 dielectric constant -eps-     =  78.40
 screen = (eps-1)/(eps    )    =   0.98724
 surface charge correction     = lagrangian
 -lineq- algorithm             =   0
 -bem- low  level              =   2
 -bem- from -octahedral-
 gaussian surface charge width =   0.98000
 degree of switching           =   1.00000
 switching function tolerance  =   0.00010
 atomic radii = 
 --------------
    1 15.000  2.106
    2  8.000  1.720
    3  8.000  1.720
    4  8.000  1.720
    5  8.000  1.720
    6  1.000  1.300
    7  1.000  1.300
    8  1.000  1.300

 solvent accessible surface
 --------------------------

 ---------- ATOMIC COORDINATES (A.U.) ------------ VDWR(ANG.) --
     1    0.00000000    0.00000000    0.20512577     2.106
     2   -2.31552718   -1.35012119   -1.09151531     1.720
     3   -0.01147566    2.68036596   -1.09151531     1.720
     4    2.32700284   -1.33024476   -1.09151531     1.720
     5    0.00000000   -0.00000000    2.98166977     1.720
     6   -2.84925488   -2.87561656   -0.24462578     1.300
     7   -1.06572955    3.90533538   -0.24462578     1.300
     8    3.91498443   -1.02971883   -0.24462578     1.300
 number of segments per atom =         32
 number of   points per atom =         32
 atom (   nspa,  nppa )
 ----------------------
    1 (     10,     0 )       0
    2 (     18,     0 )       0
    3 (     21,     0 )       0
    4 (     18,     0 )       0
    5 (     24,     0 )       0
    6 (     19,     0 )       0
    7 (     17,     0 )       0
    8 (     16,     0 )       0
 number of -cosmo- surface points =      143
 molecular surface =    103.373 angstrom**2
 molecular volume  =     57.006 angstrom**3
 G(cav/disp)       =      1.377 kcal/mol
 ...... end of -cosmo- initialization ......


  Caching 1-el integrals 
  Rotation of axis 
   Time after variat. SCF:      1.3
   Time prior to 1st pass:      1.3
  Resetting Diis


         Total DFT energy =     -644.347988610602
      One electron energy =    -1450.118553073101
           Coulomb energy =      582.284530951147
    Exchange-Corr. energy =      -59.022038432423
 Nuclear repulsion energy =      282.324160500696

             COSMO energy =        0.183911443079

 Numeric. integr. density =       49.999998561883

     Total iterative time =     46.8s


                                   COSMO solvation results
                                   -----------------------

                 gas phase energy =      -644.320110881152
                 sol phase energy =      -644.347988610602
 (electrostatic) solvation energy =         0.027877729450 (   17.49 kcal/mol)
 
                  Occupations of the irreducible representations
                  ----------------------------------------------
 
                     irrep           alpha         beta
                     --------     --------     --------
                     a                11.0         11.0
                     e+               14.0         14.0
                     e-                0.0          0.0
 
  Rotation of axis 


                         DFT ENERGY GRADIENTS

    atom               coordinates                        gradient
                 x          y          z           x          y          z
   1 P       0.000000   0.000000   0.205126   -0.000000   0.000000  -0.017138
   2 O      -2.315527  -1.350121  -1.091515    0.012458  -0.000511   0.005181
   3 O      -0.011476   2.680366  -1.091515   -0.006671  -0.010534   0.005181
   4 O       2.327003  -1.330245  -1.091515   -0.005787   0.011044   0.005181
   5 O       0.000000  -0.000000   2.981670    0.000000  -0.000000  -0.008798
   6 H      -2.849255  -2.875617  -0.244626   -0.001403  -0.000403   0.003464
   7 H      -1.065730   3.905335  -0.244626    0.000353   0.001417   0.003464
   8 H       3.914984  -1.029719  -0.244626    0.001051  -0.001014   0.003464
 
  no constraints, skipping   0.000000000000000E+000

@ Step       Energy      Delta E   Gmax     Grms     Xrms     Xmax   Walltime
@ ---- ---------------- -------- -------- -------- -------- -------- --------
@    0    -644.34798861  0.0D+00  0.01134  0.00460  0.00000  0.00000     57.4
                                                                    

  no constraints, skipping   0.000000000000000E+000
  no constraints, skipping   0.000000000000000E+000
  no constraints, skipping   0.000000000000000E+000
  no constraints, skipping   0.000000000000000E+000
  no constraints, skipping   0.000000000000000E+000
  no constraints, skipping   0.000000000000000E+000
  no constraints, skipping   0.000000000000000E+000
  no constraints, skipping   0.000000000000000E+000

          --------
          Step   1
          --------
 
                                 NWChem DFT Module
                                 -----------------
 
 
                                        VX
 
 
 
 
 solvent parameters
 solvname_short: h2o     
 solvname_long:  water                              
 dielec:       78.4000
 dielecinf:     1.7769

          ---------------
          -cosmo- solvent
          ---------------
 Cosmo: York-Karplus, doi: 10.1021/jp992097l
 dielectric constant -eps-     =  78.40
 screen = (eps-1)/(eps    )    =   0.98724
 surface charge correction     = lagrangian
 -lineq- algorithm             =   0
 -bem- low  level              =   2
 -bem- from -octahedral-
 gaussian surface charge width =   0.98000
 degree of switching           =   1.00000
 switching function tolerance  =   0.00010
 atomic radii = 
 --------------
    1 15.000  2.106
    2  8.000  1.720
    3  8.000  1.720
    4  8.000  1.720
    5  8.000  1.720
    6  1.000  1.300
    7  1.000  1.300
    8  1.000  1.300

 solvent accessible surface
 --------------------------

 ---------- ATOMIC COORDINATES (A.U.) ------------ VDWR(ANG.) --
     1   -0.00000000    0.00000000    0.26301809     2.106
     2   -2.31954832   -1.33761686   -1.08894423     1.720
     3    0.00136398    2.67759620   -1.08894423     1.720
     4    2.31818434   -1.33997934   -1.08894423     1.720
     5    0.00000000   -0.00000000    3.05344625     1.720
     6   -2.84789183   -2.88630741   -0.29041979     1.300
     7   -1.07566962    3.90950038   -0.29041979     1.300
     8    3.92356146   -1.02319297   -0.29041979     1.300
 number of segments per atom =         32
 number of   points per atom =         32
 atom (   nspa,  nppa )
 ----------------------
    1 (     10,     0 )       0
    2 (     18,     0 )       0
    3 (     21,     0 )       0
    4 (     18,     0 )       0
    5 (     24,     0 )       0
    6 (     19,     0 )       0
    7 (     17,     0 )       0
    8 (     17,     0 )       0
 number of -cosmo- surface points =      144
 molecular surface =    103.494 angstrom**2
 molecular volume  =     57.130 angstrom**3
 G(cav/disp)       =      1.377 kcal/mol
 ...... end of -cosmo- initialization ......


  Caching 1-el integrals 
  Rotation of axis 
   Time after variat. SCF:     57.6
   Time prior to 1st pass:     57.6


         Total DFT energy =     -644.348334368811
      One electron energy =    -1446.896428692296
           Coulomb energy =      580.648916237619
    Exchange-Corr. energy =      -58.999122973489
 Nuclear repulsion energy =      280.729378067680

             COSMO energy =        0.168922991676

 Numeric. integr. density =       49.999998836913

     Total iterative time =     44.7s


                                   COSMO solvation results
                                   -----------------------

                 gas phase energy =      -644.320532768789
                 sol phase energy =      -644.348334368811
 (electrostatic) solvation energy =         0.027801600022 (   17.45 kcal/mol)
 
                  Occupations of the irreducible representations
                  ----------------------------------------------
 
                     irrep           alpha         beta
                     --------     --------     --------
                     a                11.0         11.0
                     e+               14.0         14.0
                     e-                0.0          0.0
 
  Rotation of axis 


                         DFT ENERGY GRADIENTS

    atom               coordinates                        gradient
                 x          y          z           x          y          z
   1 P      -0.000000   0.000000   0.263018    0.000000   0.000000  -0.009267
   2 O      -2.319548  -1.337617  -1.088944    0.006957  -0.004159  -0.000044
   3 O       0.001364   2.677596  -1.088944   -0.007081  -0.003945  -0.000044
   4 O       2.318184  -1.339979  -1.088944    0.000124   0.008105  -0.000044
   5 O       0.000000  -0.000000   3.053446    0.000000  -0.000000   0.003099
   6 H      -2.847892  -2.886307  -0.290420   -0.001257   0.001722   0.002100
   7 H      -1.075670   3.909500  -0.290420    0.002120   0.000227   0.002100
   8 H       3.923561  -1.023193  -0.290420   -0.000863  -0.001949   0.002100
 
  no constraints, skipping   0.000000000000000E+000

  Step       Energy      Delta E   Gmax     Grms     Xrms     Xmax   Walltime
  ---- ---------------- -------- -------- -------- -------- -------- --------
@    1    -644.34833437 -3.5D-04  0.00382  0.00170  0.02548  0.07144    111.6
                                                                    

  no constraints, skipping   0.000000000000000E+000
  no constraints, skipping   0.000000000000000E+000
  no constraints, skipping   0.000000000000000E+000
  no constraints, skipping   0.000000000000000E+000
  no constraints, skipping   0.000000000000000E+000
  no constraints, skipping   0.000000000000000E+000
  no constraints, skipping   0.000000000000000E+000
  no constraints, skipping   0.000000000000000E+000

          --------
          Step   2
          --------
 
                                 NWChem DFT Module
                                 -----------------
 
 
                                        VX
 
 
 
 
 solvent parameters
 solvname_short: h2o     
 solvname_long:  water                              
 dielec:       78.4000
 dielecinf:     1.7769

          ---------------
          -cosmo- solvent
          ---------------
 Cosmo: York-Karplus, doi: 10.1021/jp992097l
 dielectric constant -eps-     =  78.40
 screen = (eps-1)/(eps    )    =   0.98724
 surface charge correction     = lagrangian
 -lineq- algorithm             =   0
 -bem- low  level              =   2
 -bem- from -octahedral-
 gaussian surface charge width =   0.98000
 degree of switching           =   1.00000
 switching function tolerance  =   0.00010
 atomic radii = 
 --------------
    1 15.000  2.106
    2  8.000  1.720
    3  8.000  1.720
    4  8.000  1.720
    5  8.000  1.720
    6  1.000  1.300
    7  1.000  1.300
    8  1.000  1.300

 solvent accessible surface
 --------------------------

 ---------- ATOMIC COORDINATES (A.U.) ------------ VDWR(ANG.) --
     1    0.00000000    0.00000000    0.31630668     2.106
     2   -2.33426868   -1.31438919   -1.07672214     1.720
     3    0.02883991    2.67873058   -1.07672214     1.720
     4    2.30542877   -1.36434138   -1.07672214     1.720
     5   -0.00000000    0.00000000    3.10325517     1.720
     6   -2.83888777   -2.90301030   -0.33700772     1.300
     7   -1.09463678    3.91005408   -0.33700772     1.300
     8    3.93352455   -1.00704378   -0.33700772     1.300
 number of segments per atom =         32
 number of   points per atom =         32
 atom (   nspa,  nppa )
 ----------------------
    1 (     11,     0 )       0
    2 (     18,     0 )       0
    3 (     20,     0 )       0
    4 (     18,     0 )       0
    5 (     24,     0 )       0
    6 (     18,     0 )       0
    7 (     17,     0 )       0
    8 (     17,     0 )       0
 number of -cosmo- surface points =      143
 molecular surface =    103.610 angstrom**2
 molecular volume  =     57.232 angstrom**3
 G(cav/disp)       =      1.378 kcal/mol
 ...... end of -cosmo- initialization ......


  Caching 1-el integrals 
  Rotation of axis 
   Time after variat. SCF:    111.8
   Time prior to 1st pass:    111.8


         Total DFT energy =     -644.347822967976
      One electron energy =    -1444.648576213152
           Coulomb energy =      579.515346096641
    Exchange-Corr. energy =      -58.981004261995
 Nuclear repulsion energy =      279.603029438550

             COSMO energy =        0.163381971980

 Numeric. integr. density =       49.999999057876

     Total iterative time =     44.9s


                                   COSMO solvation results
                                   -----------------------

                 gas phase energy =      -644.320171640108
                 sol phase energy =      -644.347822967976
 (electrostatic) solvation energy =         0.027651327867 (   17.35 kcal/mol)
 
                  Occupations of the irreducible representations
                  ----------------------------------------------
 
                     irrep           alpha         beta
                     --------     --------     --------
                     a                11.0         11.0
                     e+               14.0         14.0
                     e-                0.0          0.0
 
  Rotation of axis 


                         DFT ENERGY GRADIENTS

    atom               coordinates                        gradient
                 x          y          z           x          y          z
   1 P       0.000000   0.000000   0.316307   -0.000000   0.000000   0.005980
   2 O      -2.334269  -1.314389  -1.076722    0.002832  -0.004547  -0.005010
   3 O       0.028840   2.678731  -1.076722   -0.005354  -0.000179  -0.005010
   4 O       2.305429  -1.364341  -1.076722    0.002522   0.004726  -0.005010
   5 O      -0.000000   0.000000   3.103255    0.000000   0.000000   0.003301
   6 H      -2.838888  -2.903010  -0.337008   -0.001942   0.000709   0.001916
   7 H      -1.094637   3.910054  -0.337008    0.001585   0.001327   0.001916
   8 H       3.933525  -1.007044  -0.337008    0.000357  -0.002037   0.001916
 
  no constraints, skipping   0.000000000000000E+000

  Step       Energy      Delta E   Gmax     Grms     Xrms     Xmax   Walltime
  ---- ---------------- -------- -------- -------- -------- -------- --------
@    2    -644.34782297  5.1D-04  0.00330  0.00140  0.02534  0.05274    165.6
                                                                    

 Restricting large step in mode    1 eval= 7.0D-03 step=-3.6D-01 new=-3.0D-01
 Restricting overall step due to uphill motion.   alpha=  0.50
  no constraints, skipping   0.000000000000000E+000
  no constraints, skipping   0.000000000000000E+000
  no constraints, skipping   0.000000000000000E+000
  no constraints, skipping   0.000000000000000E+000
  no constraints, skipping   0.000000000000000E+000
  no constraints, skipping   0.000000000000000E+000
  no constraints, skipping   0.000000000000000E+000
  no constraints, skipping   0.000000000000000E+000

          --------
          Step   3
          --------
 
                                 NWChem DFT Module
                                 -----------------
 
 
                                        VX
 
 
 
 
 solvent parameters
 solvname_short: h2o     
 solvname_long:  water                              
 dielec:       78.4000
 dielecinf:     1.7769

          ---------------
          -cosmo- solvent
          ---------------
 Cosmo: York-Karplus, doi: 10.1021/jp992097l
 dielectric constant -eps-     =  78.40
 screen = (eps-1)/(eps    )    =   0.98724
 surface charge correction     = lagrangian
 -lineq- algorithm             =   0
 -bem- low  level              =   2
 -bem- from -octahedral-
 gaussian surface charge width =   0.98000
 degree of switching           =   1.00000
 switching function tolerance  =   0.00010
 atomic radii = 
 --------------
    1 15.000  2.106
    2  8.000  1.720
    3  8.000  1.720
    4  8.000  1.720
    5  8.000  1.720
    6  1.000  1.300
    7  1.000  1.300
    8  1.000  1.300

 solvent accessible surface
 --------------------------

 ---------- ATOMIC COORDINATES (A.U.) ------------ VDWR(ANG.) --
     1    0.00000000   -0.00000000    0.32922403     2.106
     2   -2.34448058   -1.30104626   -1.06833498     1.720
     3    0.04550118    2.68090287   -1.06833498     1.720
     4    2.29897940   -1.37985661   -1.06833498     1.720
     5    0.00000000   -0.00000000    3.11394634     1.720
     6   -2.82747824   -2.90704167   -0.35326439     1.300
     7   -1.10383282    3.90218882   -0.35326439     1.300
     8    3.93131106   -0.99514715   -0.35326439     1.300
 number of segments per atom =         32
 number of   points per atom =         32
 atom (   nspa,  nppa )
 ----------------------
    1 (     10,     0 )       0
    2 (     17,     0 )       0
    3 (     19,     0 )       0
    4 (     17,     0 )       0
    5 (     24,     0 )       0
    6 (     19,     0 )       0
    7 (     17,     0 )       0
    8 (     17,     0 )       0
 number of -cosmo- surface points =      140
 molecular surface =    103.623 angstrom**2
 molecular volume  =     57.256 angstrom**3
 G(cav/disp)       =      1.378 kcal/mol
 ...... end of -cosmo- initialization ......


  Caching 1-el integrals 
  Rotation of axis 
   Time after variat. SCF:    165.8
   Time prior to 1st pass:    165.8


         Total DFT energy =     -644.347635887349
      One electron energy =    -1444.264316970064
           Coulomb energy =      579.320028629510
    Exchange-Corr. energy =      -58.978707601796
 Nuclear repulsion energy =      279.418047899584

             COSMO energy =        0.157312155417

 Numeric. integr. density =       49.999999342270

     Total iterative time =     44.2s


                                   COSMO solvation results
                                   -----------------------

                 gas phase energy =      -644.320026787028
                 sol phase energy =      -644.347635887349
 (electrostatic) solvation energy =         0.027609100321 (   17.32 kcal/mol)
 
                  Occupations of the irreducible representations
                  ----------------------------------------------
 
                     irrep           alpha         beta
                     --------     --------     --------
                     a                11.0         11.0
                     e+               14.0         14.0
                     e-                0.0          0.0
 
  Rotation of axis 


                         DFT ENERGY GRADIENTS

    atom               coordinates                        gradient
                 x          y          z           x          y          z
   1 P       0.000000  -0.000000   0.329224   -0.000000   0.000000   0.009605
   2 O      -2.344481  -1.301046  -1.068335    0.001413  -0.005114  -0.005506
   3 O       0.045501   2.680903  -1.068335   -0.005136   0.001333  -0.005506
   4 O       2.298979  -1.379857  -1.068335    0.003723   0.003781  -0.005506
   5 O       0.000000  -0.000000   3.113946    0.000000   0.000000   0.002273
   6 H      -2.827478  -2.907042  -0.353264   -0.001635   0.000852   0.001547
   7 H      -1.103833   3.902189  -0.353264    0.001555   0.000990   0.001547
   8 H       3.931311  -0.995147  -0.353264    0.000080  -0.001842   0.001547
 
  no constraints, skipping   0.000000000000000E+000

  Step       Energy      Delta E   Gmax     Grms     Xrms     Xmax   Walltime
  ---- ---------------- -------- -------- -------- -------- -------- --------
@    3    -644.34763589  1.9D-04  0.00413  0.00171  0.01029  0.01677    219.0
                                                                    

 Restricting large step in mode    1 eval= 2.5D-03 step=-1.1D+00 new=-3.0D-01
 Restricting overall step due to uphill motion.   alpha=  0.25
  no constraints, skipping   0.000000000000000E+000
  no constraints, skipping   0.000000000000000E+000
  no constraints, skipping   0.000000000000000E+000
  no constraints, skipping   0.000000000000000E+000
  no constraints, skipping   0.000000000000000E+000
  no constraints, skipping   0.000000000000000E+000
  no constraints, skipping   0.000000000000000E+000
  no constraints, skipping   0.000000000000000E+000

          --------
          Step   4
          --------
 
                                 NWChem DFT Module
                                 -----------------
 
 
                                        VX
 
 
 
 
 solvent parameters
 solvname_short: h2o     
 solvname_long:  water                              
 dielec:       78.4000
 dielecinf:     1.7769

          ---------------
          -cosmo- solvent
          ---------------
 Cosmo: York-Karplus, doi: 10.1021/jp992097l
 dielectric constant -eps-     =  78.40
 screen = (eps-1)/(eps    )    =   0.98724
 surface charge correction     = lagrangian
 -lineq- algorithm             =   0
 -bem- low  level              =   2
 -bem- from -octahedral-
 gaussian surface charge width =   0.98000
 degree of switching           =   1.00000
 switching function tolerance  =   0.00010
 atomic radii = 
 --------------
    1 15.000  2.106
    2  8.000  1.720
    3  8.000  1.720
    4  8.000  1.720
    5  8.000  1.720
    6  1.000  1.300
    7  1.000  1.300
    8  1.000  1.300

 solvent accessible surface
 --------------------------

 ---------- ATOMIC COORDINATES (A.U.) ------------ VDWR(ANG.) --
     1    0.00000000    0.00000000    0.33033568     2.106
     2   -2.34999568   -1.29405363   -1.06395760     1.720
     3    0.05431452    2.68218278   -1.06395760     1.720
     4    2.29568116   -1.38812915   -1.06395760     1.720
     5    0.00000000    0.00000000    3.11399474     1.720
     6   -2.82032288   -2.90802077   -0.35802845     1.300
     7   -1.10825843    3.89648164   -0.35802845     1.300
     8    3.92858130   -0.98846087   -0.35802845     1.300
 number of segments per atom =         32
 number of   points per atom =         32
 atom (   nspa,  nppa )
 ----------------------
    1 (     10,     0 )       0
    2 (     17,     0 )       0
    3 (     19,     0 )       0
    4 (     17,     0 )       0
    5 (     24,     0 )       0
    6 (     18,     0 )       0
    7 (     17,     0 )       0
    8 (     17,     0 )       0
 number of -cosmo- surface points =      139
 molecular surface =    103.619 angstrom**2
 molecular volume  =     57.260 angstrom**3
 G(cav/disp)       =      1.378 kcal/mol
 ...... end of -cosmo- initialization ......


  Caching 1-el integrals 
  Rotation of axis 
   Time after variat. SCF:    219.2
   Time prior to 1st pass:    219.2


         Total DFT energy =     -644.347646544374
      One electron energy =    -1444.342236905444
           Coulomb energy =      579.358777259191
    Exchange-Corr. energy =      -58.979313809372
 Nuclear repulsion energy =      279.461371241359

             COSMO energy =        0.153755669892

 Numeric. integr. density =       49.999999073852

     Total iterative time =     44.2s


                                   COSMO solvation results
                                   -----------------------

                 gas phase energy =      -644.320020882682
                 sol phase energy =      -644.347646544374
 (electrostatic) solvation energy =         0.027625661692 (   17.34 kcal/mol)
 
                  Occupations of the irreducible representations
                  ----------------------------------------------
 
                     irrep           alpha         beta
                     --------     --------     --------
                     a                11.0         11.0
                     e+               14.0         14.0
                     e-                0.0          0.0
 
  Rotation of axis 


                         DFT ENERGY GRADIENTS

    atom               coordinates                        gradient
                 x          y          z           x          y          z
   1 P       0.000000   0.000000   0.330336    0.000000   0.000000   0.009807
   2 O      -2.349996  -1.294054  -1.063958    0.001187  -0.005018  -0.005293
   3 O       0.054315   2.682183  -1.063958   -0.004939   0.001482  -0.005293
   4 O       2.295681  -1.388129  -1.063958    0.003753   0.003537  -0.005293
   5 O       0.000000   0.000000   3.113995    0.000000   0.000000   0.001500
   6 H      -2.820323  -2.908021  -0.358028   -0.001424   0.000690   0.001524
   7 H      -1.108258   3.896482  -0.358028    0.001310   0.000888   0.001524
   8 H       3.928581  -0.988461  -0.358028    0.000114  -0.001579   0.001524
 
  no constraints, skipping   0.000000000000000E+000

  Step       Energy      Delta E   Gmax     Grms     Xrms     Xmax   Walltime
  ---- ---------------- -------- -------- -------- -------- -------- --------
@    4    -644.34764654 -1.1D-05  0.00410  0.00164  0.00465  0.00884    272.8
                                                                    

 Restricting large step in mode    1 eval= 2.0D-03 step=-1.5D+00 new=-3.0D-01
 Restricting overall step due to uphill motion.   alpha=  0.70
  no constraints, skipping   0.000000000000000E+000
  no constraints, skipping   0.000000000000000E+000
  no constraints, skipping   0.000000000000000E+000
  no constraints, skipping   0.000000000000000E+000
  no constraints, skipping   0.000000000000000E+000
  no constraints, skipping   0.000000000000000E+000
  no constraints, skipping   0.000000000000000E+000
  no constraints, skipping   0.000000000000000E+000

          --------
          Step   5
          --------
 
                                 NWChem DFT Module
                                 -----------------
 
 
                                        VX
 
 
 
 
 solvent parameters
 solvname_short: h2o     
 solvname_long:  water                              
 dielec:       78.4000
 dielecinf:     1.7769

          ---------------
          -cosmo- solvent
          ---------------
 Cosmo: York-Karplus, doi: 10.1021/jp992097l
 dielectric constant -eps-     =  78.40
 screen = (eps-1)/(eps    )    =   0.98724
 surface charge correction     = lagrangian
 -lineq- algorithm             =   0
 -bem- low  level              =   2
 -bem- from -octahedral-
 gaussian surface charge width =   0.98000
 degree of switching           =   1.00000
 switching function tolerance  =   0.00010
 atomic radii = 
 --------------
    1 15.000  2.106
    2  8.000  1.720
    3  8.000  1.720
    4  8.000  1.720
    5  8.000  1.720
    6  1.000  1.300
    7  1.000  1.300
    8  1.000  1.300

 solvent accessible surface
 --------------------------

 ---------- ATOMIC COORDINATES (A.U.) ------------ VDWR(ANG.) --
     1    0.00000000   -0.00000000    0.32390585     2.106
     2   -2.36461752   -1.27342026   -1.05090900     1.720
     3    0.07949447    2.68452897   -1.05090900     1.720
     4    2.28512306   -1.41110872   -1.05090900     1.720
     5    0.00000000    0.00000000    3.10581199     1.720
     6   -2.79660014   -2.90746133   -0.36620619     1.300
     7   -1.11963531    3.87565743   -0.36620619     1.300
     8    3.91623545   -0.96819610   -0.36620619     1.300
 number of segments per atom =         32
 number of   points per atom =         32
 atom (   nspa,  nppa )
 ----------------------
    1 (     10,     0 )       0
    2 (     17,     0 )       0
    3 (     19,     0 )       0
    4 (     17,     0 )       0
    5 (     24,     0 )       0
    6 (     18,     0 )       0
    7 (     17,     0 )       0
    8 (     17,     0 )       0
 number of -cosmo- surface points =      139
 molecular surface =    103.520 angstrom**2
 molecular volume  =     57.221 angstrom**3
 G(cav/disp)       =      1.378 kcal/mol
 ...... end of -cosmo- initialization ......


  Caching 1-el integrals 
  Rotation of axis 
   Time after variat. SCF:    272.9
   Time prior to 1st pass:    272.9


         Total DFT energy =     -644.347783172896
      One electron energy =    -1445.202854329014
           Coulomb energy =      579.791248389154
    Exchange-Corr. energy =      -58.985645882168
 Nuclear repulsion energy =      279.907099845341

             COSMO energy =        0.142368803791

 Numeric. integr. density =       49.999999338647

     Total iterative time =     43.4s


                                   COSMO solvation results
                                   -----------------------

                 gas phase energy =      -644.320023776419
                 sol phase energy =      -644.347783172896
 (electrostatic) solvation energy =         0.027759396477 (   17.42 kcal/mol)
 
                  Occupations of the irreducible representations
                  ----------------------------------------------
 
                     irrep           alpha         beta
                     --------     --------     --------
                     a                11.0         11.0
                     e+               14.0         14.0
                     e-                0.0          0.0
 
  Rotation of axis 


                         DFT ENERGY GRADIENTS

    atom               coordinates                        gradient
                 x          y          z           x          y          z
   1 P       0.000000  -0.000000   0.323906   -0.000000   0.000000   0.006401
   2 O      -2.364618  -1.273420  -1.050909    0.001760  -0.004186  -0.003569
   3 O       0.079494   2.684529  -1.050909   -0.004505   0.000569  -0.003569
   4 O       2.285123  -1.411109  -1.050909    0.002745   0.003617  -0.003569
   5 O       0.000000   0.000000   3.105812    0.000000   0.000000  -0.000500
   6 H      -2.796600  -2.907461  -0.366206   -0.000499   0.000246   0.001602
   7 H      -1.119635   3.875657  -0.366206    0.000463   0.000309   0.001602
   8 H       3.916235  -0.968196  -0.366206    0.000036  -0.000555   0.001602
 
  no constraints, skipping   0.000000000000000E+000

  Step       Energy      Delta E   Gmax     Grms     Xrms     Xmax   Walltime
  ---- ---------------- -------- -------- -------- -------- -------- --------
@    5    -644.34778317 -1.4D-04  0.00204  0.00089  0.01352  0.02533    325.4
                                                                    

 Restricting large step in mode    1 eval= 2.1D-03 step=-1.2D+00 new=-3.0D-01
 Restricting overall step due to uphill motion.   alpha=  0.90
  no constraints, skipping   0.000000000000000E+000
  no constraints, skipping   0.000000000000000E+000
  no constraints, skipping   0.000000000000000E+000
  no constraints, skipping   0.000000000000000E+000
  no constraints, skipping   0.000000000000000E+000
  no constraints, skipping   0.000000000000000E+000
  no constraints, skipping   0.000000000000000E+000
  no constraints, skipping   0.000000000000000E+000

          --------
          Step   6
          --------
 
                                 NWChem DFT Module
                                 -----------------
 
 
                                        VX
 
 
 
 
 solvent parameters
 solvname_short: h2o     
 solvname_long:  water                              
 dielec:       78.4000
 dielecinf:     1.7769

          ---------------
          -cosmo- solvent
          ---------------
 Cosmo: York-Karplus, doi: 10.1021/jp992097l
 dielectric constant -eps-     =  78.40
 screen = (eps-1)/(eps    )    =   0.98724
 surface charge correction     = lagrangian
 -lineq- algorithm             =   0
 -bem- low  level              =   2
 -bem- from -octahedral-
 gaussian surface charge width =   0.98000
 degree of switching           =   1.00000
 switching function tolerance  =   0.00010
 atomic radii = 
 --------------
    1 15.000  2.106
    2  8.000  1.720
    3  8.000  1.720
    4  8.000  1.720
    5  8.000  1.720
    6  1.000  1.300
    7  1.000  1.300
    8  1.000  1.300

 solvent accessible surface
 --------------------------

 ---------- ATOMIC COORDINATES (A.U.) ------------ VDWR(ANG.) --
     1    0.00000000    0.00000000    0.32707559     2.106
     2   -2.38030562   -1.24733803   -1.03274903     1.720
     3    0.10992639    2.68507415   -1.03274903     1.720
     4    2.27037923   -1.43773612   -1.03274903     1.720
     5    0.00000000    0.00000000    3.11048150     1.720
     6   -2.77023617   -2.90924686   -0.38697924     1.300
     7   -1.13436360    3.85371833   -0.38697924     1.300
     8    3.90459977   -0.94447147   -0.38697924     1.300
 number of segments per atom =         32
 number of   points per atom =         32
 atom (   nspa,  nppa )
 ----------------------
    1 (     10,     0 )       0
    2 (     17,     0 )       0
    3 (     19,     0 )       0
    4 (     17,     0 )       0
    5 (     24,     0 )       0
    6 (     17,     0 )       0
    7 (     17,     0 )       0
    8 (     18,     0 )       0
 number of -cosmo- surface points =      139
 molecular surface =    103.290 angstrom**2
 molecular volume  =     57.113 angstrom**3
 G(cav/disp)       =      1.376 kcal/mol
 ...... end of -cosmo- initialization ......


  Caching 1-el integrals 
  Rotation of axis 
   Time after variat. SCF:    325.5
   Time prior to 1st pass:    325.5


         Total DFT energy =     -644.347616061865
      One electron energy =    -1445.798142061823
           Coulomb energy =      580.089755415044
    Exchange-Corr. energy =      -58.988945616362
 Nuclear repulsion energy =      280.218292955860

             COSMO energy =        0.131423245416

 Numeric. integr. density =       49.999999283019

     Total iterative time =     44.8s


                                   COSMO solvation results
                                   -----------------------

                 gas phase energy =      -644.319658100483
                 sol phase energy =      -644.347616061865
 (electrostatic) solvation energy =         0.027957961382 (   17.54 kcal/mol)
 
                  Occupations of the irreducible representations
                  ----------------------------------------------
 
                     irrep           alpha         beta
                     --------     --------     --------
                     a                11.0         11.0
                     e+               14.0         14.0
                     e-                0.0          0.0
 
  Rotation of axis 


                         DFT ENERGY GRADIENTS

    atom               coordinates                        gradient
                 x          y          z           x          y          z
   1 P       0.000000   0.000000   0.327076   -0.000000   0.000000   0.002355
   2 O      -2.380306  -1.247338  -1.032749    0.002261  -0.002481  -0.002147
   3 O       0.109926   2.685074  -1.032749   -0.003279  -0.000718  -0.002147
   4 O       2.270379  -1.437736  -1.032749    0.001018   0.003198  -0.002147
   5 O       0.000000   0.000000   3.110482    0.000000   0.000000  -0.000313
   6 H      -2.770236  -2.909247  -0.386979    0.000512  -0.000802   0.001466
   7 H      -1.134364   3.853718  -0.386979   -0.000950  -0.000042   0.001466
   8 H       3.904600  -0.944471  -0.386979    0.000438   0.000844   0.001466
 
  no constraints, skipping   0.000000000000000E+000

  Step       Energy      Delta E   Gmax     Grms     Xrms     Xmax   Walltime
  ---- ---------------- -------- -------- -------- -------- -------- --------
@    6    -644.34761606  1.7D-04  0.00067  0.00036  0.01715  0.03079    379.5
                                                                    

 Restricting large step in mode    1 eval= 3.0D-03 step=-5.6D-01 new=-3.0D-01
 Restricting overall step due to uphill motion.   alpha=  0.50
  no constraints, skipping   0.000000000000000E+000
  no constraints, skipping   0.000000000000000E+000
  no constraints, skipping   0.000000000000000E+000
  no constraints, skipping   0.000000000000000E+000
  no constraints, skipping   0.000000000000000E+000
  no constraints, skipping   0.000000000000000E+000
  no constraints, skipping   0.000000000000000E+000
  no constraints, skipping   0.000000000000000E+000

          --------
          Step   7
          --------
 
                                 NWChem DFT Module
                                 -----------------
 
 
                                        VX
 
 
 
 
 solvent parameters
 solvname_short: h2o     
 solvname_long:  water                              
 dielec:       78.4000
 dielecinf:     1.7769

          ---------------
          -cosmo- solvent
          ---------------
 Cosmo: York-Karplus, doi: 10.1021/jp992097l
 dielectric constant -eps-     =  78.40
 screen = (eps-1)/(eps    )    =   0.98724
 surface charge correction     = lagrangian
 -lineq- algorithm             =   0
 -bem- low  level              =   2
 -bem- from -octahedral-
 gaussian surface charge width =   0.98000
 degree of switching           =   1.00000
 switching function tolerance  =   0.00010
 atomic radii = 
 --------------
    1 15.000  2.106
    2  8.000  1.720
    3  8.000  1.720
    4  8.000  1.720
    5  8.000  1.720
    6  1.000  1.300
    7  1.000  1.300
    8  1.000  1.300

 solvent accessible surface
 --------------------------

 ---------- ATOMIC COORDINATES (A.U.) ------------ VDWR(ANG.) --
     1   -0.00000000    0.00000000    0.33341473     2.106
     2   -2.38902051   -1.23474234   -1.02153030     1.720
     3    0.12519202    2.68632363   -1.02153030     1.720
     4    2.26382849   -1.45158128   -1.02153030     1.720
     5    0.00000000   -0.00000000    3.11768237     1.720
     6   -2.75853864   -2.91170852   -0.40271131     1.300
     7   -1.14234422    3.84481880   -0.40271131     1.300
     8    3.90088286   -0.93311029   -0.40271131     1.300
 number of segments per atom =         32
 number of   points per atom =         32
 atom (   nspa,  nppa )
 ----------------------
    1 (     10,     0 )       0
    2 (     17,     0 )       0
    3 (     19,     0 )       0
    4 (     17,     0 )       0
    5 (     24,     0 )       0
    6 (     18,     0 )       0
    7 (     17,     0 )       0
    8 (     18,     0 )       0
 number of -cosmo- surface points =      140
 molecular surface =    103.171 angstrom**2
 molecular volume  =     57.060 angstrom**3
 G(cav/disp)       =      1.376 kcal/mol
 ...... end of -cosmo- initialization ......


  Caching 1-el integrals 
  Rotation of axis 
   Time after variat. SCF:    379.7
   Time prior to 1st pass:    379.7


         Total DFT energy =     -644.347439092335
      One electron energy =    -1445.808667880122
           Coulomb energy =      580.093785174614
    Exchange-Corr. energy =      -58.988941163402
 Nuclear repulsion energy =      280.229096998126

             COSMO energy =        0.127287778450

 Numeric. integr. density =       49.999999290491

     Total iterative time =     41.6s


                                   COSMO solvation results
                                   -----------------------

                 gas phase energy =      -644.319393875415
                 sol phase energy =      -644.347439092335
 (electrostatic) solvation energy =         0.028045216920 (   17.60 kcal/mol)
 
                  Occupations of the irreducible representations
                  ----------------------------------------------
 
                     irrep           alpha         beta
                     --------     --------     --------
                     a                11.0         11.0
                     e+               14.0         14.0
                     e-                0.0          0.0
 
  Rotation of axis 


                         DFT ENERGY GRADIENTS

    atom               coordinates                        gradient
                 x          y          z           x          y          z
   1 P      -0.000000   0.000000   0.333415   -0.000000   0.000000   0.001420
   2 O      -2.389021  -1.234742  -1.021530    0.001832  -0.002122  -0.001539
   3 O       0.125192   2.686324  -1.021530   -0.002753  -0.000526  -0.001539
   4 O       2.263828  -1.451581  -1.021530    0.000921   0.002647  -0.001539
   5 O       0.000000  -0.000000   3.117682    0.000000  -0.000000   0.000034
   6 H      -2.758539  -2.911709  -0.402711    0.001004  -0.001045   0.001054
   7 H      -1.142344   3.844819  -0.402711   -0.001407  -0.000347   0.001054
   8 H       3.900883  -0.933110  -0.402711    0.000403   0.001392   0.001054
 
  no constraints, skipping   0.000000000000000E+000

  Step       Energy      Delta E   Gmax     Grms     Xrms     Xmax   Walltime
  ---- ---------------- -------- -------- -------- -------- -------- --------
@    7    -644.34743909  1.8D-04  0.00048  0.00026  0.00984  0.01549    429.9
                                                                    

 Restricting large step in mode    1 eval= 3.5D-03 step=-3.4D-01 new=-3.0D-01
 Restricting overall step due to uphill motion.   alpha=  0.25
  no constraints, skipping   0.000000000000000E+000
  no constraints, skipping   0.000000000000000E+000
  no constraints, skipping   0.000000000000000E+000
  no constraints, skipping   0.000000000000000E+000
  no constraints, skipping   0.000000000000000E+000
  no constraints, skipping   0.000000000000000E+000
  no constraints, skipping   0.000000000000000E+000
  no constraints, skipping   0.000000000000000E+000

          --------
          Step   8
          --------
 
                                 NWChem DFT Module
                                 -----------------
 
 
                                        VX
 
 
 
 
 solvent parameters
 solvname_short: h2o     
 solvname_long:  water                              
 dielec:       78.4000
 dielecinf:     1.7769

          ---------------
          -cosmo- solvent
          ---------------
 Cosmo: York-Karplus, doi: 10.1021/jp992097l
 dielectric constant -eps-     =  78.40
 screen = (eps-1)/(eps    )    =   0.98724
 surface charge correction     = lagrangian
 -lineq- algorithm             =   0
 -bem- low  level              =   2
 -bem- from -octahedral-
 gaussian surface charge width =   0.98000
 degree of switching           =   1.00000
 switching function tolerance  =   0.00010
 atomic radii = 
 --------------
    1 15.000  2.106
    2  8.000  1.720
    3  8.000  1.720
    4  8.000  1.720
    5  8.000  1.720
    6  1.000  1.300
    7  1.000  1.300
    8  1.000  1.300

 solvent accessible surface
 --------------------------

 ---------- ATOMIC COORDINATES (A.U.) ------------ VDWR(ANG.) --
     1    0.00000000    0.00000000    0.33664784     2.106
     2   -2.39348129   -1.22888685   -1.01557619     1.720
     3    0.13249342    2.68725902   -1.01557619     1.720
     4    2.26098787   -1.45837218   -1.01557619     1.720
     5   -0.00000000    0.00000000    3.12113066     1.720
     6   -2.75338057   -2.91333177   -0.41089255     1.300
     7   -1.14632903    3.84116341   -0.41089255     1.300
     8    3.89970961   -0.92783164   -0.41089255     1.300
 number of segments per atom =         32
 number of   points per atom =         32
 atom (   nspa,  nppa )
 ----------------------
    1 (     10,     0 )       0
    2 (     17,     0 )       0
    3 (     19,     0 )       0
    4 (     17,     0 )       0
    5 (     24,     0 )       0
    6 (     18,     0 )       0
    7 (     17,     0 )       0
    8 (     18,     0 )       0
 number of -cosmo- surface points =      140
 molecular surface =    103.121 angstrom**2
 molecular volume  =     57.038 angstrom**3
 G(cav/disp)       =      1.376 kcal/mol
 ...... end of -cosmo- initialization ......


  Caching 1-el integrals 
  Rotation of axis 
   Time after variat. SCF:    430.1
   Time prior to 1st pass:    430.1


         Total DFT energy =     -644.347348713417
      One electron energy =    -1445.792440324744
           Coulomb energy =      580.085184293849
    Exchange-Corr. energy =      -58.988753957950
 Nuclear repulsion energy =      280.222644875088

             COSMO energy =        0.126016400340

 Numeric. integr. density =       49.999999309727

     Total iterative time =     43.5s


                                   COSMO solvation results
                                   -----------------------

                 gas phase energy =      -644.319255840441
                 sol phase energy =      -644.347348713417
 (electrostatic) solvation energy =         0.028092872976 (   17.63 kcal/mol)
 
                  Occupations of the irreducible representations
                  ----------------------------------------------
 
                     irrep           alpha         beta
                     --------     --------     --------
                     a                11.0         11.0
                     e+               14.0         14.0
                     e-                0.0          0.0
 
  Rotation of axis 


                         DFT ENERGY GRADIENTS

    atom               coordinates                        gradient
                 x          y          z           x          y          z
   1 P       0.000000   0.000000   0.336648   -0.000000   0.000000   0.001094
   2 O      -2.393481  -1.228887  -1.015576    0.001579  -0.001928  -0.001235
   3 O       0.132493   2.687259  -1.015576   -0.002459  -0.000403  -0.001235
   4 O       2.260988  -1.458372  -1.015576    0.000880   0.002331  -0.001235
   5 O      -0.000000   0.000000   3.121131    0.000000   0.000000   0.000068
   6 H      -2.753381  -2.913332  -0.410893    0.001202  -0.001221   0.000847
   7 H      -1.146329   3.841163  -0.410893   -0.001658  -0.000430   0.000847
   8 H       3.899710  -0.927832  -0.410893    0.000457   0.001651   0.000847
 
  no constraints, skipping   0.000000000000000E+000

  Step       Energy      Delta E   Gmax     Grms     Xrms     Xmax   Walltime
  ---- ---------------- -------- -------- -------- -------- -------- --------
@    8    -644.34734871  9.0D-05  0.00038  0.00020  0.00490  0.00812    482.6
                                                                    

 Restricting overall step due to uphill motion.   alpha=  0.15
  no constraints, skipping   0.000000000000000E+000
  no constraints, skipping   0.000000000000000E+000
  no constraints, skipping   0.000000000000000E+000
  no constraints, skipping   0.000000000000000E+000

          --------
          Step   9
          --------
 
                                 NWChem DFT Module
                                 -----------------
 
 
                                        VX
 
 
 
 
 solvent parameters
 solvname_short: h2o     
 solvname_long:  water                              
 dielec:       78.4000
 dielecinf:     1.7769

          ---------------
          -cosmo- solvent
          ---------------
 Cosmo: York-Karplus, doi: 10.1021/jp992097l
 dielectric constant -eps-     =  78.40
 screen = (eps-1)/(eps    )    =   0.98724
 surface charge correction     = lagrangian
 -lineq- algorithm             =   0
 -bem- low  level              =   2
 -bem- from -octahedral-
 gaussian surface charge width =   0.98000
 degree of switching           =   1.00000
 switching function tolerance  =   0.00010
 atomic radii = 
 --------------
    1 15.000  2.106
    2  8.000  1.720
    3  8.000  1.720
    4  8.000  1.720
    5  8.000  1.720
    6  1.000  1.300
    7  1.000  1.300
    8  1.000  1.300

 solvent accessible surface
 --------------------------

 ---------- ATOMIC COORDINATES (A.U.) ------------ VDWR(ANG.) --
     1   -0.00000000    0.00000000    0.33836132     2.106
     2   -2.39576376   -1.22596646   -1.01239680     1.720
     3    0.13616378    2.68777551   -1.01239680     1.720
     4    2.25959998   -1.46180904   -1.01239680     1.720
     5    0.00000000    0.00000000    3.12291961     1.720
     6   -2.75083552   -2.91419622   -0.41523942     1.300
     7   -1.14835020    3.83939155   -0.41523942     1.300
     8    3.89918571   -0.92519533   -0.41523942     1.300
 number of segments per atom =         32
 number of   points per atom =         32
 atom (   nspa,  nppa )
 ----------------------
    1 (     10,     0 )       0
    2 (     17,     0 )       0
    3 (     19,     0 )       0
    4 (     17,     0 )       0
    5 (     24,     0 )       0
    6 (     18,     0 )       0
    7 (     16,     0 )       0
    8 (     18,     0 )       0
 number of -cosmo- surface points =      139
 molecular surface =    103.097 angstrom**2
 molecular volume  =     57.028 angstrom**3
 G(cav/disp)       =      1.375 kcal/mol
 ...... end of -cosmo- initialization ......


  Caching 1-el integrals 
  Rotation of axis 
   Time after variat. SCF:    482.7
   Time prior to 1st pass:    482.7


         Total DFT energy =     -644.347300874127
      One electron energy =    -1445.783995251636
           Coulomb energy =      580.080731825158
    Exchange-Corr. energy =      -58.988692290227
 Nuclear repulsion energy =      280.219143057191

             COSMO energy =        0.125511785387

 Numeric. integr. density =       49.999999288064

     Total iterative time =     42.2s


                                   COSMO solvation results
                                   -----------------------

                 gas phase energy =      -644.319182862943
                 sol phase energy =      -644.347300874127
 (electrostatic) solvation energy =         0.028118011184 (   17.64 kcal/mol)
 
                  Occupations of the irreducible representations
                  ----------------------------------------------
 
                     irrep           alpha         beta
                     --------     --------     --------
                     a                11.0         11.0
                     e+               14.0         14.0
                     e-                0.0          0.0
 
  Rotation of axis 


                         DFT ENERGY GRADIENTS

    atom               coordinates                        gradient
                 x          y          z           x          y          z
   1 P      -0.000000   0.000000   0.338361   -0.000000   0.000000   0.000945
   2 O      -2.395764  -1.225966  -1.012397    0.001443  -0.001853  -0.001063
   3 O       0.136164   2.687776  -1.012397   -0.002326  -0.000323  -0.001063
   4 O       2.259600  -1.461809  -1.012397    0.000883   0.002176  -0.001063
   5 O       0.000000   0.000000   3.122920    0.000000  -0.000000   0.000063
   6 H      -2.750836  -2.914196  -0.415239    0.001299  -0.001289   0.000727
   7 H      -1.148350   3.839392  -0.415239   -0.001765  -0.000480   0.000727
   8 H       3.899186  -0.925195  -0.415239    0.000467   0.001769   0.000727
 
  no constraints, skipping   0.000000000000000E+000

  Step       Energy      Delta E   Gmax     Grms     Xrms     Xmax   Walltime
  ---- ---------------- -------- -------- -------- -------- -------- --------
@    9    -644.34730087  4.8D-05  0.00032  0.00017  0.00255  0.00433    533.5
                                                                    

 Restricting overall step due to uphill motion.   alpha=  0.15
  no constraints, skipping   0.000000000000000E+000
  no constraints, skipping   0.000000000000000E+000
  no constraints, skipping   0.000000000000000E+000
  no constraints, skipping   0.000000000000000E+000

          --------
          Step  10
          --------
 
                                 NWChem DFT Module
                                 -----------------
 
 
                                        VX
 
 
 
 
 solvent parameters
 solvname_short: h2o     
 solvname_long:  water                              
 dielec:       78.4000
 dielecinf:     1.7769

          ---------------
          -cosmo- solvent
          ---------------
 Cosmo: York-Karplus, doi: 10.1021/jp992097l
 dielectric constant -eps-     =  78.40
 screen = (eps-1)/(eps    )    =   0.98724
 surface charge correction     = lagrangian
 -lineq- algorithm             =   0
 -bem- low  level              =   2
 -bem- from -octahedral-
 gaussian surface charge width =   0.98000
 degree of switching           =   1.00000
 switching function tolerance  =   0.00010
 atomic radii = 
 --------------
    1 15.000  2.106
    2  8.000  1.720
    3  8.000  1.720
    4  8.000  1.720
    5  8.000  1.720
    6  1.000  1.300
    7  1.000  1.300
    8  1.000  1.300

 solvent accessible surface
 --------------------------

 ---------- ATOMIC COORDINATES (A.U.) ------------ VDWR(ANG.) --
     1    0.00000000    0.00000000    0.33983002     2.106
     2   -2.39769779   -1.22352835   -1.00963458     1.720
     3    0.13924226    2.68823137   -1.00963458     1.720
     4    2.25845553   -1.46470302   -1.00963458     1.720
     5    0.00000000    0.00000000    3.12444747     1.720
     6   -2.74874880   -2.91497092   -0.41900050     1.300
     7   -1.15006447    3.83797175   -0.41900050     1.300
     8    3.89881327   -0.92300083   -0.41900050     1.300
 number of segments per atom =         32
 number of   points per atom =         32
 atom (   nspa,  nppa )
 ----------------------
    1 (     10,     0 )       0
    2 (     17,     0 )       0
    3 (     19,     0 )       0
    4 (     17,     0 )       0
    5 (     24,     0 )       0
    6 (     18,     0 )       0
    7 (     16,     0 )       0
    8 (     18,     0 )       0
 number of -cosmo- surface points =      139
 molecular surface =    103.078 angstrom**2
 molecular volume  =     57.019 angstrom**3
 G(cav/disp)       =      1.375 kcal/mol
 ...... end of -cosmo- initialization ......


  Caching 1-el integrals 
  Rotation of axis 
   Time after variat. SCF:    533.7
   Time prior to 1st pass:    533.7


         Total DFT energy =     -644.347259901865
      One electron energy =    -1445.776346459445
           Coulomb energy =      580.076740570034
    Exchange-Corr. energy =      -58.988632767190
 Nuclear repulsion energy =      280.215789641031

             COSMO energy =        0.125189113705

 Numeric. integr. density =       49.999999253824

     Total iterative time =     42.3s


                                   COSMO solvation results
                                   -----------------------

                 gas phase energy =      -644.319119359104
                 sol phase energy =      -644.347259901865
 (electrostatic) solvation energy =         0.028140542761 (   17.66 kcal/mol)
 
                  Occupations of the irreducible representations
                  ----------------------------------------------
 
                     irrep           alpha         beta
                     --------     --------     --------
                     a                11.0         11.0
                     e+               14.0         14.0
                     e-                0.0          0.0
 
  Rotation of axis 


                         DFT ENERGY GRADIENTS

    atom               coordinates                        gradient
                 x          y          z           x          y          z
   1 P       0.000000   0.000000   0.339830    0.000000   0.000000   0.000816
   2 O      -2.397698  -1.223528  -1.009635    0.001331  -0.001786  -0.000914
   3 O       0.139242   2.688231  -1.009635   -0.002213  -0.000260  -0.000914
   4 O       2.258456  -1.464703  -1.009635    0.000881   0.002046  -0.000914
   5 O       0.000000   0.000000   3.124447    0.000000  -0.000000   0.000053
   6 H      -2.748749  -2.914971  -0.419001    0.001375  -0.001349   0.000625
   7 H      -1.150064   3.837972  -0.419001   -0.001856  -0.000516   0.000625
   8 H       3.898813  -0.923001  -0.419001    0.000481   0.001866   0.000625
 
  no constraints, skipping   0.000000000000000E+000

  Step       Energy      Delta E   Gmax     Grms     Xrms     Xmax   Walltime
  ---- ---------------- -------- -------- -------- -------- -------- --------
@   10    -644.34725990  4.1D-05  0.00027  0.00015  0.00218  0.00375    584.6
                                                                    

 Restricting overall step due to uphill motion.   alpha=  0.15
  no constraints, skipping   0.000000000000000E+000
  no constraints, skipping   0.000000000000000E+000
  no constraints, skipping   0.000000000000000E+000
  no constraints, skipping   0.000000000000000E+000

          --------
          Step  11
          --------
 
                                 NWChem DFT Module
                                 -----------------
 
 
                                        VX
 
 
 
 
 solvent parameters
 solvname_short: h2o     
 solvname_long:  water                              
 dielec:       78.4000
 dielecinf:     1.7769

          ---------------
          -cosmo- solvent
          ---------------
 Cosmo: York-Karplus, doi: 10.1021/jp992097l
 dielectric constant -eps-     =  78.40
 screen = (eps-1)/(eps    )    =   0.98724
 surface charge correction     = lagrangian
 -lineq- algorithm             =   0
 -bem- low  level              =   2
 -bem- from -octahedral-
 gaussian surface charge width =   0.98000
 degree of switching           =   1.00000
 switching function tolerance  =   0.00010
 atomic radii = 
 --------------
    1 15.000  2.106
    2  8.000  1.720
    3  8.000  1.720
    4  8.000  1.720
    5  8.000  1.720
    6  1.000  1.300
    7  1.000  1.300
    8  1.000  1.300

 solvent accessible surface
 --------------------------

 ---------- ATOMIC COORDINATES (A.U.) ------------ VDWR(ANG.) --
     1    0.00000000   -0.00000000    0.34109867     2.106
     2   -2.39933857   -1.22147830   -1.00723791     1.720
     3    0.14183804    2.68862730   -1.00723791     1.720
     4    2.25750053   -1.46714900   -1.00723791     1.720
     5    0.00000000    0.00000000    3.12576895     1.720
     6   -2.74700949   -2.91564500   -0.42226054     1.300
     7   -1.15151789    3.83680250   -0.42226054     1.300
     8    3.89852738   -0.92115750   -0.42226054     1.300
 number of segments per atom =         32
 number of   points per atom =         32
 atom (   nspa,  nppa )
 ----------------------
    1 (     10,     0 )       0
    2 (     17,     0 )       0
    3 (     19,     0 )       0
    4 (     17,     0 )       0
    5 (     24,     0 )       0
    6 (     18,     0 )       0
    7 (     16,     0 )       0
    8 (     18,     0 )       0
 number of -cosmo- surface points =      139
 molecular surface =    103.062 angstrom**2
 molecular volume  =     57.013 angstrom**3
 G(cav/disp)       =      1.375 kcal/mol
 ...... end of -cosmo- initialization ......


  Caching 1-el integrals 
  Rotation of axis 
   Time after variat. SCF:    584.8
   Time prior to 1st pass:    584.8


         Total DFT energy =     -644.347224502838
      One electron energy =    -1445.769622310792
           Coulomb energy =      580.073244680071
    Exchange-Corr. energy =      -58.988585417264
 Nuclear repulsion energy =      280.212764993264

             COSMO energy =        0.124973551883

 Numeric. integr. density =       49.999999289081

     Total iterative time =     45.3s


                                   COSMO solvation results
                                   -----------------------

                 gas phase energy =      -644.319064109510
                 sol phase energy =      -644.347224502838
 (electrostatic) solvation energy =         0.028160393329 (   17.67 kcal/mol)
 
                  Occupations of the irreducible representations
                  ----------------------------------------------
 
                     irrep           alpha         beta
                     --------     --------     --------
                     a                11.0         11.0
                     e+               14.0         14.0
                     e-                0.0          0.0
 
  Rotation of axis 


                         DFT ENERGY GRADIENTS

    atom               coordinates                        gradient
                 x          y          z           x          y          z
   1 P       0.000000  -0.000000   0.341099   -0.000000   0.000000   0.000702
   2 O      -2.399339  -1.221478  -1.007238    0.001238  -0.001733  -0.000784
   3 O       0.141838   2.688627  -1.007238   -0.002120  -0.000205  -0.000784
   4 O       2.257501  -1.467149  -1.007238    0.000882   0.001939  -0.000784
   5 O       0.000000   0.000000   3.125769    0.000000  -0.000000   0.000045
   6 H      -2.747009  -2.915645  -0.422261    0.001438  -0.001398   0.000535
   7 H      -1.151518   3.836802  -0.422261   -0.001929  -0.000546   0.000535
   8 H       3.898527  -0.921158  -0.422261    0.000492   0.001944   0.000535
 
  no constraints, skipping   0.000000000000000E+000

  Step       Energy      Delta E   Gmax     Grms     Xrms     Xmax   Walltime
  ---- ---------------- -------- -------- -------- -------- -------- --------
@   11    -644.34722450  3.5D-05  0.00023  0.00013  0.00186  0.00325    639.0
                                                                    

 Restricting overall step due to uphill motion.   alpha=  0.15
  no constraints, skipping   0.000000000000000E+000
  no constraints, skipping   0.000000000000000E+000
  no constraints, skipping   0.000000000000000E+000
  no constraints, skipping   0.000000000000000E+000

          --------
          Step  12
          --------
 
                                 NWChem DFT Module
                                 -----------------
 
 
                                        VX
 
 
 
 
 solvent parameters
 solvname_short: h2o     
 solvname_long:  water                              
 dielec:       78.4000
 dielecinf:     1.7769

          ---------------
          -cosmo- solvent
          ---------------
 Cosmo: York-Karplus, doi: 10.1021/jp992097l
 dielectric constant -eps-     =  78.40
 screen = (eps-1)/(eps    )    =   0.98724
 surface charge correction     = lagrangian
 -lineq- algorithm             =   0
 -bem- low  level              =   2
 -bem- from -octahedral-
 gaussian surface charge width =   0.98000
 degree of switching           =   1.00000
 switching function tolerance  =   0.00010
 atomic radii = 
 --------------
    1 15.000  2.106
    2  8.000  1.720
    3  8.000  1.720
    4  8.000  1.720
    5  8.000  1.720
    6  1.000  1.300
    7  1.000  1.300
    8  1.000  1.300

 solvent accessible surface
 --------------------------

 ---------- ATOMIC COORDINATES (A.U.) ------------ VDWR(ANG.) --
     1   -0.00000000    0.00000000    0.34218270     2.106
     2   -2.40073482   -1.21974756   -1.00516764     1.720
     3    0.14403504    2.68897113   -1.00516764     1.720
     4    2.25669979   -1.46922356   -1.00516764     1.720
     5    0.00000000   -0.00000000    3.12689808     1.720
     6   -2.74554855   -2.91622692   -0.42506853     1.300
     7   -1.15275232    3.83582826   -0.42506853     1.300
     8    3.89830088   -0.91960133   -0.42506853     1.300
 number of segments per atom =         32
 number of   points per atom =         32
 atom (   nspa,  nppa )
 ----------------------
    1 (     10,     0 )       0
    2 (     17,     0 )       0
    3 (     19,     0 )       0
    4 (     17,     0 )       0
    5 (     24,     0 )       0
    6 (     18,     0 )       0
    7 (     16,     0 )       0
    8 (     18,     0 )       0
 number of -cosmo- surface points =      139
 molecular surface =    103.050 angstrom**2
 molecular volume  =     57.007 angstrom**3
 G(cav/disp)       =      1.375 kcal/mol
 ...... end of -cosmo- initialization ......


  Caching 1-el integrals 
  Rotation of axis 
   Time after variat. SCF:    639.2
   Time prior to 1st pass:    639.2


         Total DFT energy =     -644.347193954367
      One electron energy =    -1445.764031226278
           Coulomb energy =      580.070342808876
[...]
    4 O                    8.0000     1.18874189    -0.78976221    -0.52361237
    5 O                    8.0000    -0.00407165     0.00974519     1.65823608
    6 H                    1.0000    -1.37256152    -1.59612742    -0.33111920
    7 H                    1.0000    -0.49112922     2.09318113    -0.08123816
    8 H                    1.0000     2.06005884    -0.43397584    -0.28927274


  Geometry after  -50.0% step for mode  2; Step length =  0.257 angstroms 
   Maximum component (any atom: x,y, or z) displacement:  0.288
    1 P                   15.0000     0.00033262     0.00046118     0.18447910
    2 O                    8.0000    -1.27389961    -0.63635215    -0.52777817
    3 O                    8.0000     0.08660322     1.42703010    -0.52112479
    4 O                    8.0000     1.19495361    -0.77785134    -0.52696882
    5 O                    8.0000     0.00407165    -0.00974519     1.65823608
    6 H                    1.0000    -1.52451079    -1.49395507    -0.13663420
    7 H                    1.0000    -0.73642457     1.96079833    -0.38651524
    8 H                    1.0000     2.06456725    -0.52992114    -0.17848066


  Geometry after   34.7% step for mode  2; Step length =  0.178 angstroms 
   Maximum component (any atom: x,y, or z) displacement:  0.200
    1 P                   15.0000    -0.00023063    -0.00031977     0.18447910
    2 O                    8.0000    -1.27528961    -0.64298152    -0.52356577
    3 O                    8.0000     0.08028607     1.42202401    -0.52817904
    4 O                    8.0000     1.18969423    -0.78793612    -0.52412696
    5 O                    8.0000    -0.00282317     0.00675705     1.65823608
    6 H                    1.0000    -1.39585739    -1.58046303    -0.30130203
    7 H                    1.0000    -0.52873630     2.07288507    -0.12804125
    8 H                    1.0000     2.06075004    -0.44868554    -0.27228683


  Geometry after  -34.7% step for mode  2; Step length =  0.178 angstroms 
   Maximum component (any atom: x,y, or z) displacement:  0.200
    1 P                   15.0000     0.00023063     0.00031977     0.18447910
    2 O                    8.0000    -1.27415131    -0.63755256    -0.52701541
    3 O                    8.0000     0.08545935     1.42612362    -0.52240214
    4 O                    8.0000     1.19400127    -0.77967744    -0.52645423
    5 O                    8.0000     0.00282317    -0.00675705     1.65823608
    6 H                    1.0000    -1.50121492    -1.50961947    -0.16645138
    7 H                    1.0000    -0.69881748     1.98109440    -0.33971215
    8 H                    1.0000     2.06387605    -0.51521143    -0.19546658


  Geometry after   17.3% step for mode  2; Step length =  0.089 angstroms 
   Maximum component (any atom: x,y, or z) displacement:  0.100
    1 P                   15.0000    -0.00011532    -0.00015988     0.18447910
    2 O                    8.0000    -1.27500503    -0.64162428    -0.52442818
    3 O                    8.0000     0.08157939     1.42304891    -0.52673482
    4 O                    8.0000     1.19077099    -0.78587145    -0.52470877
    5 O                    8.0000    -0.00141159     0.00337853     1.65823608
    6 H                    1.0000    -1.42219677    -1.56275214    -0.26758937
    7 H                    1.0000    -0.57125659     2.04993740    -0.18095898
    8 H                    1.0000     2.06153154    -0.46531702    -0.25308176


  Geometry after  -17.3% step for mode  2; Step length =  0.089 angstroms 
   Maximum component (any atom: x,y, or z) displacement:  0.100
    1 P                   15.0000     0.00011532     0.00015988     0.18447910
    2 O                    8.0000    -1.27443588    -0.63890980    -0.52615300
    3 O                    8.0000     0.08416603     1.42509872    -0.52384636
    4 O                    8.0000     1.19292451    -0.78174211    -0.52587241
    5 O                    8.0000     0.00141159    -0.00337853     1.65823608
    6 H                    1.0000    -1.47487554    -1.52733036    -0.20016404
    7 H                    1.0000    -0.65629719     2.00404207    -0.28679443
    8 H                    1.0000     2.06309455    -0.49857996    -0.21467164


 vib:animation  F
 
 
                                NWChem Input Module
                                -------------------
 
 
                              NWChem Property Module
                              ----------------------
 
 
                                 NWChem DFT Module
                                 -----------------
 
 
                                        VX
 
 
 
 
 solvent parameters
 solvname_short: h2o     
 solvname_long:  water                              
 dielec:       78.4000
 dielecinf:     1.7769

          ---------------
          -cosmo- solvent
          ---------------
 Cosmo: York-Karplus, doi: 10.1021/jp992097l
 dielectric constant -eps-     =  78.40
 screen = (eps-1)/(eps    )    =   0.98724
 surface charge correction     = lagrangian
 -lineq- algorithm             =   0
 -bem- low  level              =   2
 -bem- from -octahedral-
 gaussian surface charge width =   0.98000
 degree of switching           =   1.00000
 switching function tolerance  =   0.00010
 atomic radii = 
 --------------
    1 15.000  2.106
    2  8.000  1.720
    3  8.000  1.720
    4  8.000  1.720
    5  8.000  1.720
    6  1.000  1.300
    7  1.000  1.300
    8  1.000  1.300

 solvent accessible surface
 --------------------------

 ---------- ATOMIC COORDINATES (A.U.) ------------ VDWR(ANG.) --
     1    0.00000000   -0.00000000    0.34861494     2.106
     2   -2.40887237   -1.20992927   -0.99265528     1.720
     3    0.15660671    2.69110930   -0.99265528     1.720
     4    2.25226567   -1.48118004   -0.99265528     1.720
     5    0.00000000    0.00000000    3.13361182     1.720
     6   -2.73733642   -2.91970460   -0.44196289     1.300
     7   -1.15987014    3.83045518   -0.44196289     1.300
     8    3.89720656   -0.91075058   -0.44196289     1.300
 number of segments per atom =         32
 number of   points per atom =         32
 atom (   nspa,  nppa )
 ----------------------
    1 (     10,     0 )       0
    2 (     17,     0 )       0
    3 (     19,     0 )       0
    4 (     17,     0 )       0
    5 (     24,     0 )       0
    6 (     18,     0 )       0
    7 (     17,     0 )       0
    8 (     19,     0 )       0
 number of -cosmo- surface points =      141
 molecular surface =    102.990 angstrom**2
 molecular volume  =     56.982 angstrom**3
 G(cav/disp)       =      1.375 kcal/mol
 ...... end of -cosmo- initialization ......


  Caching 1-el integrals 
   Time after variat. SCF:   4854.5
   Time prior to 1st pass:   4854.5


         Total DFT energy =     -644.347022560565
      One electron energy =    -1445.724704457782
           Coulomb energy =      580.050221834105
    Exchange-Corr. energy =      -58.988293875237
 Nuclear repulsion energy =      280.191789987753

             COSMO energy =        0.123963950596

 Numeric. integr. density =       49.999999962632

     Total iterative time =    129.4s


                                   COSMO solvation results
                                   -----------------------

                 gas phase energy =      -644.318719745865
                 sol phase energy =      -644.347022560565
 (electrostatic) solvation energy =         0.028302814700 (   17.76 kcal/mol)

          -----------------------------------------
          Chemical Shielding Tensors (GIAO, in ppm)
          -----------------------------------------

    0 giaofock schwarz done =      85.56%
    0 giaofock schwarz done =      88.00%
 
 solvent parameters
 solvname_short: h2o     
 solvname_long:  water                              
 dielec:       78.4000
 dielecinf:     1.7769

          ---------------
          -cosmo- solvent
          ---------------
 Cosmo: York-Karplus, doi: 10.1021/jp992097l
 dielectric constant -eps-     =  78.40
 screen = (eps-1)/(eps    )    =   0.98724
 surface charge correction     = lagrangian
 -lineq- algorithm             =   0
 -bem- low  level              =   2
 -bem- from -octahedral-
 gaussian surface charge width =   0.98000
 degree of switching           =   1.00000
 switching function tolerance  =   0.00010
 atomic radii = 
 --------------
    1 15.000  2.106
    2  8.000  1.720
    3  8.000  1.720
    4  8.000  1.720
    5  8.000  1.720
    6  1.000  1.300
    7  1.000  1.300
    8  1.000  1.300

 solvent accessible surface
 --------------------------

 ---------- ATOMIC COORDINATES (A.U.) ------------ VDWR(ANG.) --
     1    0.00000000   -0.00000000    0.34861494     2.106
     2   -2.40887237   -1.20992927   -0.99265528     1.720
     3    0.15660671    2.69110930   -0.99265528     1.720
     4    2.25226567   -1.48118004   -0.99265528     1.720
     5    0.00000000    0.00000000    3.13361182     1.720
     6   -2.73733642   -2.91970460   -0.44196289     1.300
     7   -1.15987014    3.83045518   -0.44196289     1.300
     8    3.89720656   -0.91075058   -0.44196289     1.300
 number of segments per atom =         32
 number of   points per atom =         32
 atom (   nspa,  nppa )
 ----------------------
    1 (     10,     0 )       0
    2 (     17,     0 )       0
    3 (     19,     0 )       0
    4 (     17,     0 )       0
    5 (     24,     0 )       0
    6 (     18,     0 )       0
    7 (     17,     0 )       0
    8 (     19,     0 )       0
 number of -cosmo- surface points =      141
 molecular surface =    102.990 angstrom**2
 molecular volume  =     56.982 angstrom**3
 G(cav/disp)       =      1.375 kcal/mol
 ...... end of -cosmo- initialization ......


 SCF residual:   6.674106557019648E-005

 Wrote CPHF data to ./molecule.shieldcphf

 Calc. par tensor-> nonrel
      Atom:    1  P 
        Diamagnetic
    964.0306      0.0245      0.0259
      0.0245    964.1329      0.0088
      0.0259      0.0088    964.1261

        Paramagnetic
   -747.0322     -0.0327      0.1321
     -0.0327   -747.2954     -0.0106
      0.1321     -0.0106   -532.6434

        Total Shielding Tensor
    216.9984     -0.0082      0.1580
     -0.0082    216.8375     -0.0019
      0.1580     -0.0019    431.4827

           isotropic =     288.4395
          anisotropy =     214.5650

          Principal Components and Axis System
                 1           2           3
              431.4828    216.9987    216.8371

      1         0.0007      0.9987      0.0509
      2        -0.0000     -0.0509      0.9987
      3         1.0000     -0.0007     -0.0000



      Atom:    2  O 
        Diamagnetic
    390.2976     14.1367      8.9481
     14.1367    393.2281     -1.6308
      8.9481     -1.6308    373.7903

        Paramagnetic
   -136.7484     24.1539     21.0907
     24.1539   -183.6737     34.1688
     21.0907     34.1688   -152.7072

        Total Shielding Tensor
    253.5491     38.2905     30.0388
     38.2905    209.5544     32.5380
     30.0388     32.5380    221.0830

           isotropic =     228.0622
          anisotropy =     106.5620

          Principal Components and Axis System
                 1           2           3
              299.1035    205.2880    179.7950

      1         0.7277     -0.6438     -0.2364
      2         0.4867      0.2420      0.8394
      3         0.4832      0.7259     -0.4895



      Atom:    3  O 
        Diamagnetic
    380.1944     -7.9847     -6.1153
     -7.9847    403.4457     -6.8645
     -6.1153     -6.8645    373.5763

        Paramagnetic
   -193.3399      7.8489     19.0525
      7.8489   -128.9611    -35.2394
     19.0525    -35.2394   -152.6945

        Total Shielding Tensor
    186.8545     -0.1358     12.9371
     -0.1358    274.4846    -42.1039
     12.9371    -42.1039    220.8818

           isotropic =     227.4070
          anisotropy =     105.8296

          Principal Components and Axis System
                 1           2           3
              297.9600    204.7207    179.5401

      1        -0.0577      0.5243      0.8496
      2         0.8720      0.4408     -0.2128
      3        -0.4860      0.7286     -0.4826



      Atom:    4  O 
        Diamagnetic
    404.6729     -5.9731     -2.7640
     -5.9731    379.3084      8.7045
     -2.7640      8.7045    373.8991

        Paramagnetic
   -150.5717    -32.1484    -40.0047
    -32.1484   -169.8213      1.1247
    -40.0047      1.1247   -152.6664

        Total Shielding Tensor
    254.1012    -38.1215    -42.7687
    -38.1215    209.4872      9.8292
    -42.7687      9.8292    221.2327

           isotropic =     228.2737
          anisotropy =     106.1691

          Principal Components and Axis System
                 1           2           3
              299.0531    205.3946    180.3733

      1         0.7864      0.1165      0.6067
      2        -0.3875     -0.6718      0.6313
      3        -0.4811      0.7315      0.4832



      Atom:    5  O 
        Diamagnetic
    385.3010      0.0218      0.2280
      0.0218    385.7318     -0.1068
      0.2280     -0.1068    428.9210

        Paramagnetic
   -224.4693     -0.2812     -0.2275
     -0.2812   -225.1136     -0.3053
     -0.2275     -0.3053   -192.6459

        Total Shielding Tensor
    160.8318     -0.2594      0.0005
     -0.2594    160.6182     -0.4121
      0.0005     -0.4121    236.2751

           isotropic =     185.9083
          anisotropy =      75.5534

          Principal Components and Axis System
                 1           2           3
              236.2773    161.0048    160.4429

      1         0.0000      0.8319      0.5550
      2        -0.0054     -0.5550      0.8318
      3         1.0000     -0.0030      0.0045



      Atom:    6  H 
        Diamagnetic
     24.6087      9.1645      0.4625
      9.1645     40.6568     -4.3600
      0.4625     -4.3600     19.6496

        Paramagnetic
     -0.1501     -2.6149     -0.5744
     -2.6149     -4.7672      1.9124
     -0.5744      1.9124      1.3594

        Total Shielding Tensor
     24.4585      6.5496     -0.1118
      6.5496     35.8896     -2.4477
     -0.1118     -2.4477     21.0090

           isotropic =      27.1190
          anisotropy =      18.0505

          Principal Components and Axis System
                 1           2           3
               39.1527     22.0822     20.1222

      1         0.4047      0.7886     -0.4629
      2         0.9059     -0.2768      0.3206
      3        -0.1247      0.5490      0.8264



      Atom:    7  H 
        Diamagnetic
     28.7143    -11.5192     -4.0043
    -11.5192     36.6260      1.7392
     -4.0043      1.7392     19.6435

        Paramagnetic
     -1.3101      3.3113      1.9775
      3.3113     -3.5332     -0.4680
      1.9775     -0.4680      1.4234

        Total Shielding Tensor
     27.4041     -8.2079     -2.0268
     -8.2079     33.0929      1.2712
     -2.0268      1.2712     21.0669

           isotropic =      27.1880
          anisotropy =      18.0262

          Principal Components and Axis System
                 1           2           3
               39.2054     22.1636     20.1949

      1        -0.5807      0.6367      0.5073
      2         0.8050      0.5420      0.2413
      3         0.1213     -0.5485      0.8273



      Atom:    8  H 
        Diamagnetic
     44.5736      2.3673      3.5343
      2.3673     20.6970      2.6075
      3.5343      2.6075     19.6379

        Paramagnetic
     -5.8456     -0.6730     -1.3755
     -0.6730      0.9540     -1.4689
     -1.3755     -1.4689      1.3703

        Total Shielding Tensor
     38.7280      1.6943      2.1588
      1.6943     21.6510      1.1386
      2.1588      1.1386     21.0082

           isotropic =      27.1291
          anisotropy =      18.0709

          Principal Components and Axis System
                 1           2           3
               39.1764     22.0955     20.1154

      1         0.9869     -0.1550     -0.0445
      2         0.1035      0.8200     -0.5629
      3         0.1238      0.5509      0.8253



 
 
                                NWChem Input Module
                                -------------------
 
 
 
 
                                     CITATION
                                     --------
                Please cite the following reference when publishing
                           results obtained with NWChem:
 
          E. Apr, E. J. Bylaska, W. A. de Jong, N. Govind, K. Kowalski,
       T. P. Straatsma, M. Valiev, H. J. J. van Dam, Y. Alexeev, J. Anchell,
       V. Anisimov, F. W. Aquino, R. Atta-Fynn, J. Autschbach, N. P. Bauman,
     J. C. Becca, D. E. Bernholdt, K. Bhaskaran-Nair, S. Bogatko, P. Borowski,
        J. Boschen, J. Brabec, A. Bruner, E. Caut, Y. Chen, G. N. Chuev,
      C. J. Cramer, J. Daily, M. J. O. Deegan, T. H. Dunning Jr., M. Dupuis,
   K. G. Dyall, G. I. Fann, S. A. Fischer, A. Fonari, H. Frchtl, L. Gagliardi,
      J. Garza, N. Gawande, S. Ghosh, K. Glaesemann, A. W. Gtz, J. Hammond,
       V. Helms, E. D. Hermes, K. Hirao, S. Hirata, M. Jacquelin, L. Jensen,
   B. G. Johnson, H. Jnsson, R. A. Kendall, M. Klemm, R. Kobayashi, V. Konkov,
      S. Krishnamoorthy, M. Krishnan, Z. Lin, R. D. Lins, R. J. Littlefield,
      A. J. Logsdail, K. Lopata, W. Ma, A. V. Marenich, J. Martin del Campo,
   D. Mejia-Rodriguez, J. E. Moore, J. M. Mullin, T. Nakajima, D. R. Nascimento,
    J. A. Nichols, P. J. Nichols, J. Nieplocha, A. Otero-de-la-Roza, B. Palmer,
    A. Panyala, T. Pirojsirikul, B. Peng, R. Peverati, J. Pittner, L. Pollack,
   R. M. Richard, P. Sadayappan, G. C. Schatz, W. A. Shelton, D. W. Silverstein,
   D. M. A. Smith, T. A. Soares, D. Song, M. Swart, H. L. Taylor, G. S. Thomas,
            V. Tipparaju, D. G. Truhlar, K. Tsemekhman, T. Van Voorhis,
     . Vzquez-Mayagoitia, P. Verma, O. Villa, A. Vishnu, K. D. Vogiatzis,
        D. Wang, J. H. Weare, M. J. Williamson, T. L. Windus, K. Woliski,
        A. T. Wong, Q. Wu, C. Yang, Q. Yu, M. Zacharias, Z. Zhang, Y. Zhao,
                                and R. J. Harrison
                        "NWChem: Past, present, and future
                         J. Chem. Phys. 152, 184102 (2020)
                               doi:10.1063/5.0004997
 
                                      AUTHORS
                                      -------
     E. Apra, E. J. Bylaska, N. Govind, K. Kowalski, M. Valiev, W. A. de Jong,
      T. P. Straatsma, H. J. J. van Dam, D. Wang, T. L. Windus, N. P. Bauman,
       A. Panyala, J. Hammond, J. Autschbach, K. Bhaskaran-Nair, J. Brabec,
    K. Lopata, S. A. Fischer, S. Krishnamoorthy, M. Jacquelin, W. Ma, M. Klemm,
       O. Villa, Y. Chen, V. Anisimov, F. Aquino, S. Hirata, M. T. Hackler,
           Eric Hermes, L. Jensen, J. E. Moore, J. C. Becca, V. Konjkov,
            D. Mejia-Rodriguez, T. Risthaus, M. Malagoli, A. Marenich,
   A. Otero-de-la-Roza, J. Mullin, P. Nichols, R. Peverati, J. Pittner, Y. Zhao,
        P.-D. Fan, A. Fonari, M. J. Williamson, R. J. Harrison, J. R. Rehr,
      M. Dupuis, D. Silverstein, D. M. A. Smith, J. Nieplocha, V. Tipparaju,
      M. Krishnan, B. E. Van Kuiken, A. Vazquez-Mayagoitia, M. Swart, Q. Wu,
   T. Van Voorhis, A. A. Auer, M. Nooijen, L. D. Crosby, E. Brown, G. Cisneros,
     G. I. Fann, H. Fruchtl, J. Garza, K. Hirao, R. A. Kendall, J. A. Nichols,
       K. Tsemekhman, K. Wolinski, J. Anchell, D. E. Bernholdt, P. Borowski,
       T. Clark, D. Clerc, H. Dachsel, M. J. O. Deegan, K. Dyall, D. Elwood,
      E. Glendening, M. Gutowski, A. C. Hess, J. Jaffe, B. G. Johnson, J. Ju,
        R. Kobayashi, R. Kutteh, Z. Lin, R. Littlefield, X. Long, B. Meng,
      T. Nakajima, S. Niu, L. Pollack, M. Rosing, K. Glaesemann, G. Sandrone,
      M. Stave, H. Taylor, G. Thomas, J. H. van Lenthe, A. T. Wong, Z. Zhang.

 Total times  cpu:     5272.8s     wall:     5301.2s
