 argument  1 = /home/milias/Work/open-collection/theoretical_chemistry/projects/nmr_diplomovky/reference_compounds/phosphoric_acid/nwchem/cosmo-h2o/h3po4.geopt_freq_nmrshield_b3lyp_6-311++g2d_2p_cosmo-h2o.nw
 


============================== echo of input deck ==============================
echo

start molecule

# https://nwchemgit.github.io/Memory.html
memory total 40 gb

print low

title "H3PO4"
charge 0

geometry units angstroms print xyz autosym
  load format xyz h3po4_startgeom.xyz
end

basis
  * library 6-311++G(2d,2p)
end

dft
  #grid fine
  grid huge
  xc b3lyp
  mult 1
# Reduce output during geometry optimization
  noprint "final vectors analysis"
end

driver
  tight
  maxiter 9999
  xyz h3po4_geom
end

property
  giao
  shielding
end

cosmo
  solvent h2o
end

task dft optimize
task dft freq
task dft property

================================================================================


                                         
                                         
 
 
             Northwest Computational Chemistry Package (NWChem) 7.0.1
             --------------------------------------------------------
 
 
                    Environmental Molecular Sciences Laboratory
                       Pacific Northwest National Laboratory
                                Richland, WA 99352
 
                              Copyright (c) 1994-2020
                       Pacific Northwest National Laboratory
                            Battelle Memorial Institute
 
             NWChem is an open-source computational chemistry package
                        distributed under the terms of the
                      Educational Community License (ECL) 2.0
             A copy of the license is included with this distribution
                              in the LICENSE.TXT file
 
                                  ACKNOWLEDGMENT
                                  --------------

            This software and its documentation were developed at the
            EMSL at Pacific Northwest National Laboratory, a multiprogram
            national laboratory, operated for the U.S. Department of Energy
            by Battelle under Contract Number DE-AC05-76RL01830. Support
            for this work was provided by the Department of Energy Office
            of Biological and Environmental Research, Office of Basic
            Energy Sciences, and the Office of Advanced Scientific Computing.


           Job information
           ---------------

    hostname        = comp21
    program         = /home/milias/Work/qch/software/nwchem_suite/nwchem_master/bin/LINUX64/nwchem
    date            = Thu Mar  4 08:03:23 2021

    compiled        = Sun_Jan_31_23:21:07_2021
    source          = /home/milias/Work/qch/software/nwchem_suite/nwchem_master
    nwchem branch   = 7.0.0
    nwchem revision = nwchem_on_git-2308-gc943026
    ga revision     = 5.8.0
    use scalapack   = F
    input           = /home/milias/Work/open-collection/theoretical_chemistry/projects/nmr_diplomovky/reference_compounds/phosphoric_acid/nwchem/cosmo-h2o/h3po4.geopt_freq_nmrshield_b3lyp_6-311++g2d_2p_cosmo-h2o.nw
    prefix          = molecule.
    data base       = ./molecule.db
    status          = startup
    nproc           =       12
    time left       =     -1s



           Memory information
           ------------------

    heap     = 1342177278 doubles =  10240.0 Mbytes
    stack    = 1342177275 doubles =  10240.0 Mbytes
    global   = 2684354560 doubles =  20480.0 Mbytes (distinct from heap & stack)
    total    = 5368709113 doubles =  40960.0 Mbytes
    verify   = yes
    hardfail = no 


           Directory information
           ---------------------
 
  0 permanent = .
  0 scratch   = .
 
 
 
 
                                NWChem Input Module
                                -------------------
 
 
                                       H3PO4
                                       -----

 Scaling coordinates for geometry "geometry" by  1.889725989
 (inverse scale =  0.529177249)


          ------
          auto-z
          ------
  no constraints, skipping   0.000000000000000E+000
  no constraints, skipping   0.000000000000000E+000
 
 
                             Geometry "geometry" -> ""
                             -------------------------
 
 Output coordinates in angstroms (scale by  1.889725989 to convert to a.u.)
 
  No.       Tag          Charge          X              Y              Z
 ---- ---------------- ---------- -------------- -------------- --------------
    1 P                   15.0000     0.00000000     0.00000000     0.12998968
    2 O                    8.0000    -0.00000000     1.42648313    -0.57978001
    3 O                    8.0000     1.23537063    -0.71324157    -0.57978001
    4 O                    8.0000    -1.23537063    -0.71324157    -0.57978001
    5 O                    8.0000     0.00000000     0.00000000     1.60374666
    6 H                    1.0000    -0.73049986     1.98790830    -0.28836612
    7 H                    1.0000     2.08682902    -0.36132271    -0.28836612
    8 H                    1.0000    -1.35632916    -1.62658559    -0.28836612
 
      Atomic Mass 
      ----------- 
 
      P                 30.973760
      O                 15.994910
      H                  1.007825
 

 Effective nuclear repulsion energy (a.u.)     280.1917899187

            Nuclear Dipole moment (a.u.) 
            ----------------------------
        X                 Y               Z
 ---------------- ---------------- ----------------
     0.0000000000     0.0000000000    -0.0000000000
 
      Symmetry information
      --------------------
 
 Group name             C3        
 Group number              5
 Group order               3
 No. of unique centers     4
 
      Symmetry unique atoms
 
     1    2    5    6
 


                                Z-matrix (autoz)
                                -------- 

 Units are Angstrom for bonds and degrees for angles
 
      Type          Name      I     J     K     L     M      Value
      ----------- --------  ----- ----- ----- ----- ----- ----------
    1 Stretch                  1     2                       1.59331
    2 Stretch                  1     3                       1.59331
    3 Stretch                  1     4                       1.59331
    4 Stretch                  1     5                       1.47376
    5 Stretch                  2     6                       0.96631
    6 Stretch                  3     7                       0.96631
    7 Stretch                  4     8                       0.96631
    8 Bend                     1     2     6               112.69501
    9 Bend                     1     3     7               112.69501
   10 Bend                     1     4     8               112.69501
   11 Bend                     2     1     3               101.67356
   12 Bend                     2     1     4               101.67356
   13 Bend                     2     1     5               116.45338
   14 Bend                     3     1     4               101.67356
   15 Bend                     3     1     5               116.45338
   16 Bend                     4     1     5               116.45338
   17 Torsion                  2     1     3     7          72.62650
   18 Torsion                  2     1     4     8         177.32068
   19 Torsion                  3     1     2     6         177.32068
   20 Torsion                  3     1     4     8          72.62650
   21 Torsion                  4     1     2     6          72.62650
   22 Torsion                  4     1     3     7         177.32068
   23 Torsion                  5     1     2     6         -55.02641
   24 Torsion                  5     1     3     7         -55.02641
   25 Torsion                  5     1     4     8         -55.02641
 
 
            XYZ format geometry
            -------------------
     8
 geometry
 P                     0.00000000     0.00000000     0.12998968
 O                    -0.00000000     1.42648313    -0.57978001
 O                     1.23537063    -0.71324157    -0.57978001
 O                    -1.23537063    -0.71324157    -0.57978001
 O                     0.00000000     0.00000000     1.60374666
 H                    -0.73049986     1.98790830    -0.28836612
 H                     2.08682902    -0.36132271    -0.28836612
 H                    -1.35632916    -1.62658559    -0.28836612
 
 ==============================================================================
                                internuclear distances
 ------------------------------------------------------------------------------
       center one      |      center two      | atomic units |  angstroms
 ------------------------------------------------------------------------------
    2 O                |   1 P                |     3.01091  |     1.59331
    3 O                |   1 P                |     3.01091  |     1.59331
    4 O                |   1 P                |     3.01091  |     1.59331
    5 O                |   1 P                |     2.78500  |     1.47376
    6 H                |   2 O                |     1.82606  |     0.96631
    7 H                |   3 O                |     1.82606  |     0.96631
    8 H                |   4 O                |     1.82606  |     0.96631
 ------------------------------------------------------------------------------
                         number of included internuclear distances:          7
 ==============================================================================



 ==============================================================================
                                 internuclear angles
 ------------------------------------------------------------------------------
        center 1       |       center 2       |       center 3       |  degrees
 ------------------------------------------------------------------------------
    2 O                |   1 P                |   3 O                |   101.67
    2 O                |   1 P                |   4 O                |   101.67
    2 O                |   1 P                |   5 O                |   116.45
    3 O                |   1 P                |   4 O                |   101.67
    3 O                |   1 P                |   5 O                |   116.45
    4 O                |   1 P                |   5 O                |   116.45
    1 P                |   2 O                |   6 H                |   112.70
    1 P                |   3 O                |   7 H                |   112.70
    1 P                |   4 O                |   8 H                |   112.70
 ------------------------------------------------------------------------------
                            number of included internuclear angles:          9
 ==============================================================================



  library name resolved from: environment
  library file name is: </usr/share/nwchem/libraries/>
  


 Summary of "ao basis" -> "" (cartesian)
 ------------------------------------------------------------------------------
       Tag                 Description            Shells   Functions and Types
 ---------------- ------------------------------  ------  ---------------------
 *                      6-311++G(2d,2p)               on all atoms 


 
 
                           NWChem Geometry Optimization
                           ----------------------------
 
 
 
 
                                       H3PO4
 
 
  no constraints, skipping   0.000000000000000E+000
 maximum gradient threshold         (gmax) =   0.000015
 rms gradient threshold             (grms) =   0.000010
 maximum cartesian step threshold   (xmax) =   0.000060
 rms cartesian step threshold       (xrms) =   0.000040
 fixed trust radius                (trust) =   0.300000
 maximum step size to saddle      (sadstp) =   0.100000
 energy precision                  (eprec) =   5.0D-06
 maximum number of steps          (nptopt) = 9999
 initial hessian option           (inhess) =    0
 line search option               (linopt) =    1
 hessian update option            (modupd) =    1
 saddle point option              (modsad) =    0
 initial eigen-mode to follow     (moddir) =    0
 initial variable to follow       (vardir) =    0
 follow first negative mode     (firstneg) =    T
 apply conjugacy                    (opcg) =    F
 source of zmatrix                         =   autoz   


          -------------------
          Energy Minimization
          -------------------

 
 Names of Z-matrix variables 
    1              2              3              4              5         
    6              7              8              9             10         
   11             12             13             14             15         
   16             17             18             19             20         
   21             22             23             24             25         
 
 Variables with the same non-blank name are constrained to be equal
 
 
 Using diagonal initial Hessian 
 Scaling for Hessian diagonals: bonds = 1.00  angles = 0.25  torsions = 0.10

          --------
          Step   0
          --------
 
                                 NWChem DFT Module
                                 -----------------
 
 
                                       H3PO4
 
 
                      Basis "ao basis" -> "ao basis" (cartesian)
                      -----
  P (Phosphorous)
  ---------------
            Exponent  Coefficients 
       -------------- ---------------------------------------------------------
  1 S  7.74924000E+04  0.000781
  1 S  1.16058000E+04  0.006068
  1 S  2.64596000E+03  0.031160
  1 S  7.54976000E+02  0.123431
  1 S  2.48755000E+02  0.378209
  1 S  9.11565000E+01  0.563262
 
  2 S  9.11565000E+01  0.160255
  2 S  3.62257000E+01  0.627647
  2 S  1.52113000E+01  0.263849
 
  3 S  4.79417000E+00  1.000000
 
  4 S  1.80793000E+00  1.000000
 
  5 S  3.56816000E-01  1.000000
 
  6 S  1.14783000E-01  1.000000
 
  7 P  3.84843000E+02  0.009206
  7 P  9.05521000E+01  0.069874
  7 P  2.91339000E+01  0.292470
  7 P  1.08862000E+01  0.728103
 
  8 P  4.35259000E+00  0.628349
  8 P  1.77706000E+00  0.428044
 
  9 P  6.97005000E-01  1.000000
 
 10 P  2.53532000E-01  1.000000
 
 11 P  6.84930000E-02  1.000000
 
 12 S  3.48000000E-02  1.000000
 
 13 P  3.48000000E-02  1.000000
 
 14 D  1.10000000E+00  1.000000
 
 15 D  2.75000000E-01  1.000000
 
  O (Oxygen)
  ----------
            Exponent  Coefficients 
       -------------- ---------------------------------------------------------
  1 S  8.58850000E+03  0.001895
  1 S  1.29723000E+03  0.014386
  1 S  2.99296000E+02  0.070732
  1 S  8.73771000E+01  0.240001
  1 S  2.56789000E+01  0.594797
  1 S  3.74004000E+00  0.280802
 
  2 S  4.21175000E+01  0.113889
  2 S  9.62837000E+00  0.920811
  2 S  2.85332000E+00 -0.003274
 
  3 P  4.21175000E+01  0.036511
  3 P  9.62837000E+00  0.237153
  3 P  2.85332000E+00  0.819702
 
  4 S  9.05661000E-01  1.000000
 
  5 P  9.05661000E-01  1.000000
 
  6 S  2.55611000E-01  1.000000
 
  7 P  2.55611000E-01  1.000000
 
  8 S  8.45000000E-02  1.000000
 
  9 P  8.45000000E-02  1.000000
 
 10 D  2.58400000E+00  1.000000
 
 11 D  6.46000000E-01  1.000000
 
  H (Hydrogen)
  ------------
            Exponent  Coefficients 
       -------------- ---------------------------------------------------------
  1 S  3.38650000E+01  0.025494
  1 S  5.09479000E+00  0.190373
  1 S  1.15879000E+00  0.852161
 
  2 S  3.25840000E-01  1.000000
 
  3 S  1.02741000E-01  1.000000
 
  4 S  3.60000000E-02  1.000000
 
  5 P  1.50000000E+00  1.000000
 
  6 P  3.75000000E-01  1.000000
 


 Summary of "ao basis" -> "ao basis" (cartesian)
 ------------------------------------------------------------------------------
       Tag                 Description            Shells   Functions and Types
 ---------------- ------------------------------  ------  ---------------------
 P                      6-311++G(2d,2p)             15       37   7s6p2d
 O                      6-311++G(2d,2p)             11       29   5s4p2d
 H                      6-311++G(2d,2p)              6       10   4s2p


 
 
 solvent parameters
 solvname_short: h2o     
 solvname_long:  water                              
 dielec:       78.4000
 dielecinf:     1.7769

          ---------------
          -cosmo- solvent
          ---------------
 Cosmo: York-Karplus, doi: 10.1021/jp992097l
 dielectric constant -eps-     =  78.40
 screen = (eps-1)/(eps    )    =   0.98724
 surface charge correction     = lagrangian
 -lineq- algorithm             =   0
 -bem- low  level              =   2
 -bem- from -octahedral-
 gaussian surface charge width =   0.98000
 degree of switching           =   1.00000
 switching function tolerance  =   0.00010
 atomic radii = 
 --------------
    1 15.000  2.106
    2  8.000  1.720
    3  8.000  1.720
    4  8.000  1.720
    5  8.000  1.720
    6  1.000  1.300
    7  1.000  1.300
    8  1.000  1.300

 solvent accessible surface
 --------------------------

 ---------- ATOMIC COORDINATES (A.U.) ------------ VDWR(ANG.) --
     1    0.00000000    0.00000000    0.24564488     2.106
     2   -0.00000000    2.69566225   -1.09562535     1.720
     3    2.33451199   -1.34783112   -1.09562535     1.720
     4   -2.33451199   -1.34783113   -1.09562535     1.720
     5    0.00000000    0.00000000    3.03064175     1.720
     6   -1.38044457    3.75660198   -0.54493295     1.300
     7    3.94353503   -0.68280092   -0.54493295     1.300
     8   -2.56309046   -3.07380106   -0.54493295     1.300
 number of segments per atom =         32
 number of   points per atom =         32
 atom (   nspa,  nppa )
 ----------------------
    1 (     10,     0 )       0
    2 (     21,     0 )       0
    3 (     17,     0 )       0
    4 (     17,     0 )       0
    5 (     24,     0 )       0
    6 (     17,     0 )       0
    7 (     18,     0 )       0
    8 (     18,     0 )       0
 number of -cosmo- surface points =      142
 molecular surface =    102.551 angstrom**2
 molecular volume  =     56.642 angstrom**3
 G(cav/disp)       =      1.373 kcal/mol
 ...... end of -cosmo- initialization ......


  Caching 1-el integrals 
  Rotation of axis 
   Time after variat. SCF:      1.5
   Time prior to 1st pass:      1.5
  Resetting Diis


         Total DFT energy =     -644.346811022611
      One electron energy =    -1445.733249621619
           Coulomb energy =      580.053372913278
    Exchange-Corr. energy =      -58.988160452758
 Nuclear repulsion energy =      280.191789918670

             COSMO energy =        0.129436219819

 Numeric. integr. density =       49.999999338213

     Total iterative time =     47.7s


                                   COSMO solvation results
                                   -----------------------

                 gas phase energy =      -644.318719508387
                 sol phase energy =      -644.346811022611
 (electrostatic) solvation energy =         0.028091514224 (   17.63 kcal/mol)
 
                  Occupations of the irreducible representations
                  ----------------------------------------------
 
                     irrep           alpha         beta
                     --------     --------     --------
                     a                11.0         11.0
                     e+               14.0         14.0
                     e-                0.0          0.0
 
  Rotation of axis 


                         DFT ENERGY GRADIENTS

    atom               coordinates                        gradient
                 x          y          z           x          y          z
   1 P       0.000000   0.000000   0.245645    0.000000   0.000000   0.001664
   2 O      -0.000000   2.695662  -1.095625    0.000556   0.005544  -0.001966
   3 O       2.334512  -1.347831  -1.095625    0.004523  -0.003254  -0.001966
   4 O      -2.334512  -1.347831  -1.095625   -0.005080  -0.002290  -0.001966
   5 O       0.000000   0.000000   3.030642   -0.000000   0.000000   0.001134
   6 H      -1.380445   3.756602  -0.544933    0.001323  -0.004419   0.001033
   7 H       3.943535  -0.682801  -0.544933   -0.004489   0.001063   0.001033
   8 H      -2.563090  -3.073801  -0.544933    0.003165   0.003356   0.001033
 
  no constraints, skipping   0.000000000000000E+000

@ Step       Energy      Delta E   Gmax     Grms     Xrms     Xmax   Walltime
@ ---- ---------------- -------- -------- -------- -------- -------- --------
@    0    -644.34681102  0.0D+00  0.00334  0.00171  0.00000  0.00000     58.1
                                                                    

  no constraints, skipping   0.000000000000000E+000
  no constraints, skipping   0.000000000000000E+000
  no constraints, skipping   0.000000000000000E+000
  no constraints, skipping   0.000000000000000E+000
  no constraints, skipping   0.000000000000000E+000
  no constraints, skipping   0.000000000000000E+000
  no constraints, skipping   0.000000000000000E+000
  no constraints, skipping   0.000000000000000E+000
 
                                 NWChem DFT Module
                                 -----------------
 
 
                                       H3PO4
 
 
 
 
 solvent parameters
 solvname_short: h2o     
 solvname_long:  water                              
 dielec:       78.4000
 dielecinf:     1.7769

          ---------------
          -cosmo- solvent
          ---------------
 Cosmo: York-Karplus, doi: 10.1021/jp992097l
 dielectric constant -eps-     =  78.40
 screen = (eps-1)/(eps    )    =   0.98724
 surface charge correction     = lagrangian
 -lineq- algorithm             =   0
 -bem- low  level              =   2
 -bem- from -octahedral-
 gaussian surface charge width =   0.98000
 degree of switching           =   1.00000
 switching function tolerance  =   0.00010
 atomic radii = 
 --------------
    1 15.000  2.106
    2  8.000  1.720
    3  8.000  1.720
    4  8.000  1.720
    5  8.000  1.720
    6  1.000  1.300
    7  1.000  1.300
    8  1.000  1.300

 solvent accessible surface
 --------------------------

 ---------- ATOMIC COORDINATES (A.U.) ------------ VDWR(ANG.) --
     1    0.00000000    0.00000000    0.26327036     2.106
     2   -0.01151619    2.68922144   -1.08453921     1.720
     3    2.33469218   -1.33463741   -1.08453921     1.720
     4   -2.32317599   -1.35458403   -1.08453921     1.720
     5    0.00000000   -0.00000000    3.04646168     1.720
     6   -1.38483495    3.79103172   -0.56716755     1.300
     7    3.97554725   -0.69621361   -0.56716755     1.300
     8   -2.59071230   -3.09481811   -0.56716755     1.300
 number of segments per atom =         32
 number of   points per atom =         32
 atom (   nspa,  nppa )
 ----------------------
    1 (     10,     0 )       0
    2 (     20,     0 )       0
    3 (     17,     0 )       0
    4 (     17,     0 )       0
    5 (     24,     0 )       0
    6 (     17,     0 )       0
    7 (     19,     0 )       0
    8 (     18,     0 )       0
 number of -cosmo- surface points =      142
 molecular surface =    102.714 angstrom**2
 molecular volume  =     56.726 angstrom**3
 G(cav/disp)       =      1.374 kcal/mol
 ...... end of -cosmo- initialization ......


  Caching 1-el integrals 
  Rotation of axis 
   Time after variat. SCF:     58.3
   Time prior to 1st pass:     58.3


         Total DFT energy =     -644.346907365575
      One electron energy =    -1445.792302300434
           Coulomb energy =      580.103105641612
    Exchange-Corr. energy =      -58.983329351172
 Nuclear repulsion energy =      280.166161083672

             COSMO energy =        0.159457560748

 Numeric. integr. density =       49.999999367730

     Total iterative time =     43.3s


                                   COSMO solvation results
                                   -----------------------

                 gas phase energy =      -644.318451702027
                 sol phase energy =      -644.346907365575
 (electrostatic) solvation energy =         0.028455663548 (   17.86 kcal/mol)
 
                  Occupations of the irreducible representations
                  ----------------------------------------------
 
                     irrep           alpha         beta
                     --------     --------     --------
                     a                11.0         11.0
                     e+               14.0         14.0
                     e-                0.0          0.0
 
 Line search: 
     step= 1.00 grad=-6.9D-04 hess= 6.0D-04 energy=   -644.346907 mode=downhill
 new step= 0.58                   predicted energy=   -644.347012
  no constraints, skipping   0.000000000000000E+000
  no constraints, skipping   0.000000000000000E+000
  no constraints, skipping   0.000000000000000E+000
  no constraints, skipping   0.000000000000000E+000
  no constraints, skipping   0.000000000000000E+000
  no constraints, skipping   0.000000000000000E+000
  no constraints, skipping   0.000000000000000E+000
  no constraints, skipping   0.000000000000000E+000

          --------
          Step   1
          --------
 
                                 NWChem DFT Module
                                 -----------------
 
 
                                       H3PO4
 
 
 
 
 solvent parameters
 solvname_short: h2o     
 solvname_long:  water                              
 dielec:       78.4000
 dielecinf:     1.7769

          ---------------
          -cosmo- solvent
          ---------------
 Cosmo: York-Karplus, doi: 10.1021/jp992097l
 dielectric constant -eps-     =  78.40
 screen = (eps-1)/(eps    )    =   0.98724
 surface charge correction     = lagrangian
 -lineq- algorithm             =   0
 -bem- low  level              =   2
 -bem- from -octahedral-
 gaussian surface charge width =   0.98000
 degree of switching           =   1.00000
 switching function tolerance  =   0.00010
 atomic radii = 
 --------------
    1 15.000  2.106
    2  8.000  1.720
    3  8.000  1.720
    4  8.000  1.720
    5  8.000  1.720
    6  1.000  1.300
    7  1.000  1.300
    8  1.000  1.300

 solvent accessible surface
 --------------------------

 ---------- ATOMIC COORDINATES (A.U.) ------------ VDWR(ANG.) --
     1    0.00000000   -0.00000000    0.25583428     2.106
     2   -0.00665121    2.69192955   -1.08923642     1.720
     3    2.33460498   -1.34020466   -1.08923642     1.720
     4   -2.32795377   -1.35172489   -1.08923642     1.720
     5    0.00000000    0.00000000    3.03978237     1.720
     6   -1.38306381    3.77671666   -0.55776522     1.300
     7    3.96226448   -0.69058994   -0.55776522     1.300
     8   -2.57920067   -3.08612672   -0.55776522     1.300
 number of segments per atom =         32
 number of   points per atom =         32
 atom (   nspa,  nppa )
 ----------------------
    1 (     10,     0 )       0
    2 (     21,     0 )       0
    3 (     17,     0 )       0
    4 (     17,     0 )       0
    5 (     24,     0 )       0
    6 (     17,     0 )       0
    7 (     19,     0 )       0
    8 (     18,     0 )       0
 number of -cosmo- surface points =      143
 molecular surface =    102.659 angstrom**2
 molecular volume  =     56.699 angstrom**3
 G(cav/disp)       =      1.373 kcal/mol
 ...... end of -cosmo- initialization ......


  Caching 1-el integrals 
  Rotation of axis 
   Time after variat. SCF:    101.8
   Time prior to 1st pass:    101.8


         Total DFT energy =     -644.346936284748
      One electron energy =    -1445.765456012809
           Coulomb energy =      580.081375795610
    Exchange-Corr. energy =      -58.985344999100
 Nuclear repulsion energy =      280.175928711698

             COSMO energy =        0.146560219853

 Numeric. integr. density =       49.999999355811

     Total iterative time =     42.0s


                                   COSMO solvation results
                                   -----------------------

                 gas phase energy =      -644.318624374880
                 sol phase energy =      -644.346936284748
 (electrostatic) solvation energy =         0.028311909869 (   17.77 kcal/mol)
 
                  Occupations of the irreducible representations
                  ----------------------------------------------
 
                     irrep           alpha         beta
                     --------     --------     --------
                     a                11.0         11.0
                     e+               14.0         14.0
                     e-                0.0          0.0
 
  Rotation of axis 


                         DFT ENERGY GRADIENTS

    atom               coordinates                        gradient
                 x          y          z           x          y          z
   1 P       0.000000  -0.000000   0.255834    0.000000   0.000000   0.001602
   2 O      -0.006651   2.691930  -1.089236    0.001289   0.002828  -0.001812
   3 O       2.334605  -1.340205  -1.089236    0.001805  -0.002530  -0.001812
   4 O      -2.327954  -1.351725  -1.089236   -0.003094  -0.000298  -0.001812
   5 O       0.000000   0.000000   3.039782   -0.000000   0.000000   0.000433
   6 H      -1.383064   3.776717  -0.557765   -0.000689  -0.001410   0.001133
   7 H       3.962264  -0.690590  -0.557765   -0.000876   0.001301   0.001133
   8 H      -2.579201  -3.086127  -0.557765    0.001565   0.000108   0.001133
 
  no constraints, skipping   0.000000000000000E+000

  Step       Energy      Delta E   Gmax     Grms     Xrms     Xmax   Walltime
  ---- ---------------- -------- -------- -------- -------- -------- --------
@    1    -644.34693628 -1.3D-04  0.00178  0.00086  0.00958  0.01972    152.9
                                                                    

  no constraints, skipping   0.000000000000000E+000
  no constraints, skipping   0.000000000000000E+000
  no constraints, skipping   0.000000000000000E+000
  no constraints, skipping   0.000000000000000E+000
  no constraints, skipping   0.000000000000000E+000
  no constraints, skipping   0.000000000000000E+000
  no constraints, skipping   0.000000000000000E+000
  no constraints, skipping   0.000000000000000E+000
 
                                 NWChem DFT Module
                                 -----------------
 
 
                                       H3PO4
 
 
 
 
 solvent parameters
 solvname_short: h2o     
 solvname_long:  water                              
 dielec:       78.4000
 dielecinf:     1.7769

          ---------------
          -cosmo- solvent
          ---------------
 Cosmo: York-Karplus, doi: 10.1021/jp992097l
 dielectric constant -eps-     =  78.40
 screen = (eps-1)/(eps    )    =   0.98724
 surface charge correction     = lagrangian
 -lineq- algorithm             =   0
 -bem- low  level              =   2
 -bem- from -octahedral-
 gaussian surface charge width =   0.98000
 degree of switching           =   1.00000
 switching function tolerance  =   0.00010
 atomic radii = 
 --------------
    1 15.000  2.106
    2  8.000  1.720
    3  8.000  1.720
    4  8.000  1.720
    5  8.000  1.720
    6  1.000  1.300
    7  1.000  1.300
    8  1.000  1.300

 solvent accessible surface
 --------------------------

 ---------- ATOMIC COORDINATES (A.U.) ------------ VDWR(ANG.) --
     1    0.00000000   -0.00000000    0.27444805     2.106
     2   -0.01658876    2.68133548   -1.07897521     1.720
     3    2.33039902   -1.32630145   -1.07897521     1.720
     4   -2.31381026   -1.35503402   -1.07897521     1.720
     5    0.00000000    0.00000000    3.05749123     1.720
     6   -1.38175773    3.79254029   -0.58013397     1.300
     7    3.97531510   -0.69963284   -0.58013397     1.300
     8   -2.59355737   -3.09290744   -0.58013397     1.300
 number of segments per atom =         32
 number of   points per atom =         32
 atom (   nspa,  nppa )
 ----------------------
    1 (     10,     0 )       0
    2 (     20,     0 )       0
    3 (     17,     0 )       0
    4 (     17,     0 )       0
    5 (     24,     0 )       0
    6 (     17,     0 )       0
    7 (     19,     0 )       0
    8 (     18,     0 )       0
 number of -cosmo- surface points =      142
 molecular surface =    102.533 angstrom**2
 molecular volume  =     56.636 angstrom**3
 G(cav/disp)       =      1.373 kcal/mol
 ...... end of -cosmo- initialization ......


  Caching 1-el integrals 
  Rotation of axis 
   Time after variat. SCF:    153.1
   Time prior to 1st pass:    153.1


         Total DFT energy =     -644.346818263201
      One electron energy =    -1446.437438583925
           Coulomb energy =      580.431746373760
    Exchange-Corr. energy =      -58.991072151911
 Nuclear repulsion energy =      280.486119413546

             COSMO energy =        0.163826685329

 Numeric. integr. density =       49.999999371626

     Total iterative time =     44.6s


                                   COSMO solvation results
                                   -----------------------

                 gas phase energy =      -644.318363858237
                 sol phase energy =      -644.346818263201
 (electrostatic) solvation energy =         0.028454404964 (   17.86 kcal/mol)
 
                  Occupations of the irreducible representations
                  ----------------------------------------------
 
                     irrep           alpha         beta
                     --------     --------     --------
                     a                11.0         11.0
                     e+               14.0         14.0
                     e-                0.0          0.0
 
 Line search: 
     step= 1.00 grad=-2.9D-04 hess= 4.1D-04 energy=   -644.346818 mode=bracket 
 new step= 0.36                   predicted energy=   -644.346988
  no constraints, skipping   0.000000000000000E+000
  no constraints, skipping   0.000000000000000E+000
  no constraints, skipping   0.000000000000000E+000
  no constraints, skipping   0.000000000000000E+000
  no constraints, skipping   0.000000000000000E+000
  no constraints, skipping   0.000000000000000E+000
  no constraints, skipping   0.000000000000000E+000
  no constraints, skipping   0.000000000000000E+000

          --------
          Step   2
          --------
 
                                 NWChem DFT Module
                                 -----------------
 
 
                                       H3PO4
 
 
 
 
 solvent parameters
 solvname_short: h2o     
 solvname_long:  water                              
 dielec:       78.4000
 dielecinf:     1.7769

          ---------------
          -cosmo- solvent
          ---------------
 Cosmo: York-Karplus, doi: 10.1021/jp992097l
 dielectric constant -eps-     =  78.40
 screen = (eps-1)/(eps    )    =   0.98724
 surface charge correction     = lagrangian
 -lineq- algorithm             =   0
 -bem- low  level              =   2
 -bem- from -octahedral-
 gaussian surface charge width =   0.98000
 degree of switching           =   1.00000
 switching function tolerance  =   0.00010
 atomic radii = 
 --------------
    1 15.000  2.106
    2  8.000  1.720
    3  8.000  1.720
    4  8.000  1.720
    5  8.000  1.720
    6  1.000  1.300
    7  1.000  1.300
    8  1.000  1.300

 solvent accessible surface
 --------------------------

 ---------- ATOMIC COORDINATES (A.U.) ------------ VDWR(ANG.) --
     1    0.00000000   -0.00000000    0.26244929     2.106
     2   -0.01018300    2.68816315   -1.08560241     1.720
     3    2.33310908   -1.33526284   -1.08560241     1.720
     4   -2.32292607   -1.35290031   -1.08560241     1.720
     5    0.00000000    0.00000000    3.04607498     1.720
     6   -1.38264487    3.78246477   -0.56570177     1.300
     7    3.96703301   -0.69382680   -0.56570177     1.300
     8   -2.58438814   -3.08863797   -0.56570177     1.300
 number of segments per atom =         32
 number of   points per atom =         32
 atom (   nspa,  nppa )
 ----------------------
    1 (     10,     0 )       0
    2 (     20,     0 )       0
    3 (     17,     0 )       0
    4 (     17,     0 )       0
    5 (     24,     0 )       0
    6 (     17,     0 )       0
    7 (     19,     0 )       0
    8 (     18,     0 )       0
 number of -cosmo- surface points =      142
 molecular surface =    102.625 angstrom**2
 molecular volume  =     56.683 angstrom**3
 G(cav/disp)       =      1.373 kcal/mol
 ...... end of -cosmo- initialization ......


  Caching 1-el integrals 
  Rotation of axis 
   Time after variat. SCF:    197.9
   Time prior to 1st pass:    197.9


         Total DFT energy =     -644.346927415880
      One electron energy =    -1446.003065239717
           Coulomb energy =      580.205407703137
    Exchange-Corr. energy =      -58.987380203198
 Nuclear repulsion energy =      280.285626234359

             COSMO energy =        0.152484089539

 Numeric. integr. density =       49.999999114567

     Total iterative time =     42.8s


                                   COSMO solvation results
                                   -----------------------

                 gas phase energy =      -644.318557575914
                 sol phase energy =      -644.346927415880
 (electrostatic) solvation energy =         0.028369839966 (   17.80 kcal/mol)
 
                  Occupations of the irreducible representations
                  ----------------------------------------------
 
                     irrep           alpha         beta
                     --------     --------     --------
                     a                11.0         11.0
                     e+               14.0         14.0
                     e-                0.0          0.0
 
  Rotation of axis 


                         DFT ENERGY GRADIENTS

    atom               coordinates                        gradient
                 x          y          z           x          y          z
   1 P       0.000000  -0.000000   0.262449    0.000000   0.000000   0.001225
   2 O      -0.010183   2.688163  -1.085602    0.000502   0.001988  -0.001215
   3 O       2.333109  -1.335263  -1.085602    0.001471  -0.001429  -0.001215
   4 O      -2.322926  -1.352900  -1.085602   -0.001973  -0.000559  -0.001215
   5 O       0.000000   0.000000   3.046075   -0.000000   0.000000   0.000262
   6 H      -1.382645   3.782465  -0.565702   -0.000479  -0.000978   0.000720
   7 H       3.967033  -0.693827  -0.565702   -0.000608   0.000903   0.000720
   8 H      -2.584388  -3.088638  -0.565702    0.001086   0.000075   0.000720
 
  no constraints, skipping   0.000000000000000E+000

  Step       Energy      Delta E   Gmax     Grms     Xrms     Xmax   Walltime
  ---- ---------------- -------- -------- -------- -------- -------- --------
@    2    -644.34692742  8.9D-06  0.00122  0.00059  0.00452  0.00802    249.5
                                                                    

 Restricting overall step due to uphill motion.   alpha=  0.50
  no constraints, skipping   0.000000000000000E+000
  no constraints, skipping   0.000000000000000E+000
  no constraints, skipping   0.000000000000000E+000
  no constraints, skipping   0.000000000000000E+000
  no constraints, skipping   0.000000000000000E+000
  no constraints, skipping   0.000000000000000E+000
  no constraints, skipping   0.000000000000000E+000
  no constraints, skipping   0.000000000000000E+000
 
                                 NWChem DFT Module
                                 -----------------
 
 
                                       H3PO4
 
 
 
 
 solvent parameters
 solvname_short: h2o     
 solvname_long:  water                              
 dielec:       78.4000
 dielecinf:     1.7769

          ---------------
          -cosmo- solvent
          ---------------
 Cosmo: York-Karplus, doi: 10.1021/jp992097l
 dielectric constant -eps-     =  78.40
 screen = (eps-1)/(eps    )    =   0.98724
 surface charge correction     = lagrangian
 -lineq- algorithm             =   0
 -bem- low  level              =   2
 -bem- from -octahedral-
 gaussian surface charge width =   0.98000
 degree of switching           =   1.00000
 switching function tolerance  =   0.00010
 atomic radii = 
 --------------
    1 15.000  2.106
    2  8.000  1.720
    3  8.000  1.720
    4  8.000  1.720
    5  8.000  1.720
    6  1.000  1.300
    7  1.000  1.300
    8  1.000  1.300

 solvent accessible surface
 --------------------------

 ---------- ATOMIC COORDINATES (A.U.) ------------ VDWR(ANG.) --
     1    0.00000000    0.00000000    0.26842841     2.106
     2   -0.01266294    2.68421542   -1.08234078     1.720
     3    2.33093022   -1.33114128   -1.08234078     1.720
     4   -2.31826728   -1.35307414   -1.08234078     1.720
     5    0.00000000    0.00000000    3.05179656     1.720
     6   -1.38240235    3.78665186   -0.57286362     1.300
     7    3.97053788   -0.69613038   -0.57286362     1.300
     8   -2.58813553   -3.09052148   -0.57286362     1.300
 number of segments per atom =         32
 number of   points per atom =         32
 atom (   nspa,  nppa )
 ----------------------
    1 (     10,     0 )       0
    2 (     20,     0 )       0
    3 (     17,     0 )       0
    4 (     17,     0 )       0
    5 (     24,     0 )       0
    6 (     17,     0 )       0
    7 (     19,     0 )       0
    8 (     18,     0 )       0
 number of -cosmo- surface points =      142
 molecular surface =    102.575 angstrom**2
 molecular volume  =     56.657 angstrom**3
 G(cav/disp)       =      1.373 kcal/mol
 ...... end of -cosmo- initialization ......


  Caching 1-el integrals 
  Rotation of axis 
   Time after variat. SCF:    249.7
   Time prior to 1st pass:    249.7


         Total DFT energy =     -644.346879100184
      One electron energy =    -1446.279163741733
           Coulomb energy =      580.348648231749
    Exchange-Corr. energy =      -58.989327638545
 Nuclear repulsion energy =      280.415223127608

             COSMO energy =        0.157740920737

 Numeric. integr. density =       49.999999366057

     Total iterative time =     42.6s


                                   COSMO solvation results
                                   -----------------------

                 gas phase energy =      -644.318456017380
                 sol phase energy =      -644.346879100184
 (electrostatic) solvation energy =         0.028423082804 (   17.84 kcal/mol)
 
                  Occupations of the irreducible representations
                  ----------------------------------------------
 
                     irrep           alpha         beta
                     --------     --------     --------
                     a                11.0         11.0
                     e+               14.0         14.0
                     e-                0.0          0.0
 
 Line search: 
     step= 0.50 grad=-1.2D-04 hess= 4.3D-04 energy=   -644.346879 mode=bracket 
 new step= 0.14                   predicted energy=   -644.346935
  no constraints, skipping   0.000000000000000E+000
  no constraints, skipping   0.000000000000000E+000
  no constraints, skipping   0.000000000000000E+000
  no constraints, skipping   0.000000000000000E+000

          --------
          Step   3
          --------
 
                                 NWChem DFT Module
                                 -----------------
 
 
                                       H3PO4
 
 
 
 
 solvent parameters
 solvname_short: h2o     
 solvname_long:  water                              
 dielec:       78.4000
 dielecinf:     1.7769

          ---------------
          -cosmo- solvent
          ---------------
 Cosmo: York-Karplus, doi: 10.1021/jp992097l
 dielectric constant -eps-     =  78.40
 screen = (eps-1)/(eps    )    =   0.98724
 surface charge correction     = lagrangian
 -lineq- algorithm             =   0
 -bem- low  level              =   2
 -bem- from -octahedral-
 gaussian surface charge width =   0.98000
 degree of switching           =   1.00000
 switching function tolerance  =   0.00010
 atomic radii = 
 --------------
    1 15.000  2.106
    2  8.000  1.720
    3  8.000  1.720
    4  8.000  1.720
    5  8.000  1.720
    6  1.000  1.300
    7  1.000  1.300
    8  1.000  1.300

 solvent accessible surface
 --------------------------

 ---------- ATOMIC COORDINATES (A.U.) ------------ VDWR(ANG.) --
     1    0.00000000    0.00000000    0.26408485     2.106
     2   -0.01086089    2.68708302   -1.08471139     1.720
     3    2.33251260   -1.33413570   -1.08471139     1.720
     4   -2.32165171   -1.35294732   -1.08471139     1.720
     5    0.00000000    0.00000000    3.04764003     1.720
     6   -1.38258240    3.78361979   -0.56765966     1.300
     7    3.96800206   -0.69445841   -0.56765966     1.300
     8   -2.58541966   -3.08916137   -0.56765966     1.300
 number of segments per atom =         32
 number of   points per atom =         32
 atom (   nspa,  nppa )
 ----------------------
    1 (     10,     0 )       0
    2 (     20,     0 )       0
    3 (     17,     0 )       0
    4 (     17,     0 )       0
    5 (     24,     0 )       0
    6 (     17,     0 )       0
    7 (     19,     0 )       0
    8 (     18,     0 )       0
 number of -cosmo- surface points =      142
 molecular surface =    102.612 angstrom**2
 molecular volume  =     56.677 angstrom**3
 G(cav/disp)       =      1.373 kcal/mol
 ...... end of -cosmo- initialization ......


  Caching 1-el integrals 
  Rotation of axis 
   Time after variat. SCF:    292.6
   Time prior to 1st pass:    292.6


         Total DFT energy =     -644.346917159267
      One electron energy =    -1446.078480138298
           Coulomb energy =      580.244543549631
    Exchange-Corr. energy =      -58.987912697758
 Nuclear repulsion energy =      280.321028271090

             COSMO energy =        0.153903856068

 Numeric. integr. density =       49.999999360975

     Total iterative time =     42.5s


                                   COSMO solvation results
                                   -----------------------

                 gas phase energy =      -644.318532151843
                 sol phase energy =      -644.346917159267
 (electrostatic) solvation energy =         0.028385007424 (   17.81 kcal/mol)
 
                  Occupations of the irreducible representations
                  ----------------------------------------------
 
                     irrep           alpha         beta
                     --------     --------     --------
                     a                11.0         11.0
                     e+               14.0         14.0
                     e-                0.0          0.0
 
  Rotation of axis 


                         DFT ENERGY GRADIENTS

    atom               coordinates                        gradient
                 x          y          z           x          y          z
   1 P       0.000000   0.000000   0.264085    0.000000   0.000000   0.001094
   2 O      -0.010861   2.687083  -1.084711    0.000369   0.001693  -0.001081
   3 O       2.332513  -1.334136  -1.084711    0.001282  -0.001166  -0.001081
   4 O      -2.321652  -1.352947  -1.084711   -0.001651  -0.000527  -0.001081
   5 O       0.000000   0.000000   3.047640   -0.000000   0.000000   0.000223
   6 H      -1.382582   3.783620  -0.567660   -0.000475  -0.000844   0.000642
   7 H       3.968002  -0.694458  -0.567660   -0.000494   0.000833   0.000642
   8 H      -2.585420  -3.089161  -0.567660    0.000969   0.000011   0.000642
 
  no constraints, skipping   0.000000000000000E+000

  Step       Energy      Delta E   Gmax     Grms     Xrms     Xmax   Walltime
  ---- ---------------- -------- -------- -------- -------- -------- --------
@    3    -644.34691716  1.0D-05  0.00106  0.00051  0.00108  0.00196    344.2
                                                                    

 Restricting overall step due to uphill motion.   alpha=  0.25
  no constraints, skipping   0.000000000000000E+000
  no constraints, skipping   0.000000000000000E+000
  no constraints, skipping   0.000000000000000E+000
  no constraints, skipping   0.000000000000000E+000
 
                                 NWChem DFT Module
                                 -----------------
 
 
                                       H3PO4
 
 
 
 
 solvent parameters
 solvname_short: h2o     
 solvname_long:  water                              
 dielec:       78.4000
 dielecinf:     1.7769

          ---------------
          -cosmo- solvent
          ---------------
 Cosmo: York-Karplus, doi: 10.1021/jp992097l
 dielectric constant -eps-     =  78.40
 screen = (eps-1)/(eps    )    =   0.98724
 surface charge correction     = lagrangian
 -lineq- algorithm             =   0
 -bem- low  level              =   2
 -bem- from -octahedral-
 gaussian surface charge width =   0.98000
 degree of switching           =   1.00000
 switching function tolerance  =   0.00010
 atomic radii = 
 --------------
    1 15.000  2.106
    2  8.000  1.720
    3  8.000  1.720
    4  8.000  1.720
    5  8.000  1.720
    6  1.000  1.300
    7  1.000  1.300
    8  1.000  1.300

 solvent accessible surface
 --------------------------

 ---------- ATOMIC COORDINATES (A.U.) ------------ VDWR(ANG.) --
     1    0.00000000    0.00000000    0.26667344     2.106
     2   -0.01180326    2.68540864   -1.08319816     1.720
     3    2.33153373   -1.33248240   -1.08319816     1.720
     4   -2.31973048   -1.35292624   -1.08319816     1.720
     5    0.00000000    0.00000000    3.05012370     1.720
     6   -1.38251200    3.78527179   -0.57086364     1.300
     7    3.96939753   -0.69534538   -0.57086364     1.300
     8   -2.58688553   -3.08992641   -0.57086364     1.300
 number of segments per atom =         32
 number of   points per atom =         32
 atom (   nspa,  nppa )
 ----------------------
    1 (     10,     0 )       0
    2 (     20,     0 )       0
    3 (     17,     0 )       0
    4 (     17,     0 )       0
    5 (     24,     0 )       0
    6 (     17,     0 )       0
    7 (     19,     0 )       0
    8 (     18,     0 )       0
 number of -cosmo- surface points =      142
 molecular surface =    102.591 angstrom**2
 molecular volume  =     56.666 angstrom**3
 G(cav/disp)       =      1.373 kcal/mol
 ...... end of -cosmo- initialization ......


  Caching 1-el integrals 
  Rotation of axis 
   Time after variat. SCF:    344.4
   Time prior to 1st pass:    344.4


         Total DFT energy =     -644.346895588724
      One electron energy =    -1446.200416877209
           Coulomb energy =      580.307718622693
    Exchange-Corr. energy =      -58.988805734039
 Nuclear repulsion energy =      280.378544597100

             COSMO energy =        0.156063802731

 Numeric. integr. density =       49.999999371861

     Total iterative time =     41.3s


                                   COSMO solvation results
                                   -----------------------

                 gas phase energy =      -644.318486901118
                 sol phase energy =      -644.346895588724
 (electrostatic) solvation energy =         0.028408687606 (   17.83 kcal/mol)
 
                  Occupations of the irreducible representations
                  ----------------------------------------------
 
                     irrep           alpha         beta
                     --------     --------     --------
                     a                11.0         11.0
                     e+               14.0         14.0
                     e-                0.0          0.0
 
 Line search: 
     step= 0.25 grad=-8.6D-05 hess= 6.9D-04 energy=   -644.346896 mode=bracket 
 new step= 0.06                   predicted energy=   -644.346920
  no constraints, skipping   0.000000000000000E+000
  no constraints, skipping   0.000000000000000E+000
  no constraints, skipping   0.000000000000000E+000

          --------
          Step   4
          --------
 
                                 NWChem DFT Module
                                 -----------------
 
 
                                       H3PO4
 
 
 
 
 solvent parameters
 solvname_short: h2o     
 solvname_long:  water                              
 dielec:       78.4000
 dielecinf:     1.7769

          ---------------
          -cosmo- solvent
          ---------------
 Cosmo: York-Karplus, doi: 10.1021/jp992097l
 dielectric constant -eps-     =  78.40
 screen = (eps-1)/(eps    )    =   0.98724
 surface charge correction     = lagrangian
 -lineq- algorithm             =   0
 -bem- low  level              =   2
 -bem- from -octahedral-
 gaussian surface charge width =   0.98000
 degree of switching           =   1.00000
 switching function tolerance  =   0.00010
 atomic radii = 
 --------------
    1 15.000  2.106
    2  8.000  1.720
    3  8.000  1.720
    4  8.000  1.720
    5  8.000  1.720
    6  1.000  1.300
    7  1.000  1.300
    8  1.000  1.300

 solvent accessible surface
 --------------------------

 ---------- ATOMIC COORDINATES (A.U.) ------------ VDWR(ANG.) --
     1    0.00000000   -0.00000000    0.26473126     2.106
     2   -0.01109605    2.68666487   -1.08433369     1.720
     3    2.33226806   -1.33372297   -1.08433369     1.720
     4   -2.32117201   -1.35294190   -1.08433369     1.720
     5    0.00000000   -0.00000000    3.04826024     1.720
     6   -1.38256553    3.78403395   -0.56845956     1.300
     7    3.96835230   -0.69468010   -0.56845956     1.300
     8   -2.58578677   -3.08935385   -0.56845956     1.300
 number of segments per atom =         32
 number of   points per atom =         32
 atom (   nspa,  nppa )
 ----------------------
    1 (     10,     0 )       0
    2 (     20,     0 )       0
    3 (     17,     0 )       0
    4 (     17,     0 )       0
    5 (     24,     0 )       0
    6 (     17,     0 )       0
    7 (     19,     0 )       0
    8 (     18,     0 )       0
 number of -cosmo- surface points =      142
 molecular surface =    102.607 angstrom**2
 molecular volume  =     56.674 angstrom**3
 G(cav/disp)       =      1.373 kcal/mol
 ...... end of -cosmo- initialization ......


  Caching 1-el integrals 
  Rotation of axis 
   Time after variat. SCF:    385.9
   Time prior to 1st pass:    385.9


         Total DFT energy =     -644.346912272397
      One electron energy =    -1446.108908651267
           Coulomb energy =      580.260310308270
    Exchange-Corr. energy =      -58.988135644386
 Nuclear repulsion energy =      280.335381798119

             COSMO energy =        0.154439916868

 Numeric. integr. density =       49.999999379402

     Total iterative time =     42.2s


                                   COSMO solvation results
                                   -----------------------

                 gas phase energy =      -644.318521245905
                 sol phase energy =      -644.346912272397
 (electrostatic) solvation energy =         0.028391026492 (   17.82 kcal/mol)
 
                  Occupations of the irreducible representations
                  ----------------------------------------------
 
                     irrep           alpha         beta
                     --------     --------     --------
                     a                11.0         11.0
                     e+               14.0         14.0
                     e-                0.0          0.0
 
  Rotation of axis 


                         DFT ENERGY GRADIENTS

    atom               coordinates                        gradient
                 x          y          z           x          y          z
   1 P       0.000000  -0.000000   0.264731    0.000000   0.000000   0.001037
   2 O      -0.011096   2.686665  -1.084334    0.000311   0.001582  -0.001025
   3 O       2.332268  -1.333723  -1.084334    0.001214  -0.001061  -0.001025
   4 O      -2.321172  -1.352942  -1.084334   -0.001526  -0.000521  -0.001025
   5 O       0.000000  -0.000000   3.048260   -0.000000   0.000000   0.000209
   6 H      -1.382566   3.784034  -0.568460   -0.000468  -0.000796   0.000610
   7 H       3.968352  -0.694680  -0.568460   -0.000456   0.000803   0.000610
   8 H      -2.585787  -3.089354  -0.568460    0.000923  -0.000007   0.000610
 
  no constraints, skipping   0.000000000000000E+000

  Step       Energy      Delta E   Gmax     Grms     Xrms     Xmax   Walltime
  ---- ---------------- -------- -------- -------- -------- -------- --------
@    4    -644.34691227  4.9D-06  0.00099  0.00047  0.00043  0.00080    436.4
                                                                    

 Restricting overall step due to uphill motion.   alpha=  0.70
  no constraints, skipping   0.000000000000000E+000
  no constraints, skipping   0.000000000000000E+000
  no constraints, skipping   0.000000000000000E+000
  no constraints, skipping   0.000000000000000E+000
  no constraints, skipping   0.000000000000000E+000
  no constraints, skipping   0.000000000000000E+000
  no constraints, skipping   0.000000000000000E+000
  no constraints, skipping   0.000000000000000E+000
 
                                 NWChem DFT Module
                                 -----------------
 
 
                                       H3PO4
 
 
 
 
 solvent parameters
 solvname_short: h2o     
 solvname_long:  water                              
 dielec:       78.4000
 dielecinf:     1.7769

          ---------------
          -cosmo- solvent
          ---------------
 Cosmo: York-Karplus, doi: 10.1021/jp992097l
 dielectric constant -eps-     =  78.40
 screen = (eps-1)/(eps    )    =   0.98724
 surface charge correction     = lagrangian
 -lineq- algorithm             =   0
 -bem- low  level              =   2
 -bem- from -octahedral-
 gaussian surface charge width =   0.98000
 degree of switching           =   1.00000
 switching function tolerance  =   0.00010
 atomic radii = 
 --------------
    1 15.000  2.106
    2  8.000  1.720
    3  8.000  1.720
    4  8.000  1.720
    5  8.000  1.720
    6  1.000  1.300
    7  1.000  1.300
    8  1.000  1.300

 solvent accessible surface
 --------------------------

 ---------- ATOMIC COORDINATES (A.U.) ------------ VDWR(ANG.) --
     1    0.00000000   -0.00000000    0.27178331     2.106
     2   -0.01319772    2.68220729   -1.08002949     1.720
     3    2.32945851   -1.32967408   -1.08002949     1.720
     4   -2.31626079   -1.35253320   -1.08002949     1.720
     5    0.00000000    0.00000000    3.05503696     1.720
     6   -1.38251716    3.78802127   -0.57737336     1.300
     7    3.97178123   -0.69671566   -0.57737336     1.300
     8   -2.58926407   -3.09130561   -0.57737336     1.300
 number of segments per atom =         32
 number of   points per atom =         32
 atom (   nspa,  nppa )
 ----------------------
    1 (     10,     0 )       0
    2 (     20,     0 )       0
    3 (     17,     0 )       0
    4 (     17,     0 )       0
    5 (     24,     0 )       0
    6 (     17,     0 )       0
    7 (     19,     0 )       0
    8 (     18,     0 )       0
 number of -cosmo- surface points =      142
 molecular surface =    102.546 angstrom**2
 molecular volume  =     56.642 angstrom**3
 G(cav/disp)       =      1.373 kcal/mol
 ...... end of -cosmo- initialization ......


  Caching 1-el integrals 
  Rotation of axis 
   Time after variat. SCF:    436.6
   Time prior to 1st pass:    436.6


         Total DFT energy =     -644.346835125981
      One electron energy =    -1446.440958867604
           Coulomb energy =      580.432207133576
    Exchange-Corr. energy =      -58.990544070914
 Nuclear repulsion energy =      280.492377573674

             COSMO energy =        0.160083105288

 Numeric. integr. density =       49.999999386480

     Total iterative time =     43.8s


                                   COSMO solvation results
                                   -----------------------

                 gas phase energy =      -644.318380916571
                 sol phase energy =      -644.346835125981
 (electrostatic) solvation energy =         0.028454209410 (   17.86 kcal/mol)
 
                  Occupations of the irreducible representations
                  ----------------------------------------------
 
                     irrep           alpha         beta
                     --------     --------     --------
                     a                11.0         11.0
                     e+               14.0         14.0
                     e-                0.0          0.0
 
 Line search: 
     step= 0.70 grad=-7.7D-05 hess= 2.7D-04 energy=   -644.346835 mode=bracket 
 new step= 0.14                   predicted energy=   -644.346918
  no constraints, skipping   0.000000000000000E+000
  no constraints, skipping   0.000000000000000E+000
  no constraints, skipping   0.000000000000000E+000
  no constraints, skipping   0.000000000000000E+000

          --------
          Step   5
          --------
 
                                 NWChem DFT Module
                                 -----------------
 
 
                                       H3PO4
 
 
 
 
 solvent parameters
 solvname_short: h2o     
 solvname_long:  water                              
 dielec:       78.4000
 dielecinf:     1.7769

          ---------------
          -cosmo- solvent
          ---------------
 Cosmo: York-Karplus, doi: 10.1021/jp992097l
 dielectric constant -eps-     =  78.40
 screen = (eps-1)/(eps    )    =   0.98724
 surface charge correction     = lagrangian
 -lineq- algorithm             =   0
 -bem- low  level              =   2
 -bem- from -octahedral-
 gaussian surface charge width =   0.98000
 degree of switching           =   1.00000
 switching function tolerance  =   0.00010
 atomic radii = 
 --------------
    1 15.000  2.106
    2  8.000  1.720
    3  8.000  1.720
    4  8.000  1.720
    5  8.000  1.720
    6  1.000  1.300
    7  1.000  1.300
    8  1.000  1.300

 solvent accessible surface
 --------------------------

 ---------- ATOMIC COORDINATES (A.U.) ------------ VDWR(ANG.) --
     1    0.00000000    0.00000000    0.26617524     2.106
     2   -0.01152487    2.68575204   -1.08345331     1.720
     3    2.33169193   -1.33289519   -1.08345331     1.720
     4   -2.32016706   -1.35285685   -1.08345331     1.720
     5    0.00000000    0.00000000    3.04964781     1.720
     6   -1.38256029    3.78486023   -0.57028380     1.300
     7    3.96906525   -0.69509778   -0.57028380     1.300
     8   -2.58650497   -3.08976245   -0.57028380     1.300
 number of segments per atom =         32
 number of   points per atom =         32
 atom (   nspa,  nppa )
 ----------------------
    1 (     10,     0 )       0
    2 (     20,     0 )       0
    3 (     17,     0 )       0
    4 (     17,     0 )       0
    5 (     24,     0 )       0
    6 (     17,     0 )       0
    7 (     19,     0 )       0
    8 (     18,     0 )       0
 number of -cosmo- surface points =      142
 molecular surface =    102.596 angstrom**2
 molecular volume  =     56.668 angstrom**3
 G(cav/disp)       =      1.373 kcal/mol
 ...... end of -cosmo- initialization ......


  Caching 1-el integrals 
  Rotation of axis 
   Time after variat. SCF:    480.6
   Time prior to 1st pass:    480.6


         Total DFT energy =     -644.346899480094
      One electron energy =    -1446.176760046122
           Coulomb energy =      580.295447299220
    Exchange-Corr. energy =      -58.988628294472
 Nuclear repulsion energy =      280.367468067945

             COSMO energy =        0.155573493335

 Numeric. integr. density =       49.999999373042

     Total iterative time =     43.4s


                                   COSMO solvation results
                                   -----------------------

                 gas phase energy =      -644.318494857331
                 sol phase energy =      -644.346899480094
 (electrostatic) solvation energy =         0.028404622763 (   17.82 kcal/mol)
 
                  Occupations of the irreducible representations
                  ----------------------------------------------
 
                     irrep           alpha         beta
                     --------     --------     --------
                     a                11.0         11.0
                     e+               14.0         14.0
                     e-                0.0          0.0
 
  Rotation of axis 


                         DFT ENERGY GRADIENTS

    atom               coordinates                        gradient
                 x          y          z           x          y          z
   1 P       0.000000   0.000000   0.266175    0.000000   0.000000   0.000906
   2 O      -0.011525   2.685752  -1.083453    0.000187   0.001335  -0.000901
   3 O       2.331692  -1.332895  -1.083453    0.001063  -0.000830  -0.000901
   4 O      -2.320167  -1.352857  -1.083453   -0.001250  -0.000506  -0.000901
   5 O       0.000000   0.000000   3.049648   -0.000000   0.000000   0.000175
   6 H      -1.382560   3.784860  -0.570284   -0.000452  -0.000691   0.000541
   7 H       3.969065  -0.695098  -0.570284   -0.000372   0.000737   0.000541
   8 H      -2.586505  -3.089762  -0.570284    0.000824  -0.000046   0.000541
 
  no constraints, skipping   0.000000000000000E+000

  Step       Energy      Delta E   Gmax     Grms     Xrms     Xmax   Walltime
  ---- ---------------- -------- -------- -------- -------- -------- --------
@    5    -644.34689948  1.3D-05  0.00085  0.00040  0.00094  0.00183    533.0
                                                                    

 Restricting overall step due to uphill motion.   alpha=  0.50
  no constraints, skipping   0.000000000000000E+000
  no constraints, skipping   0.000000000000000E+000
  no constraints, skipping   0.000000000000000E+000
  no constraints, skipping   0.000000000000000E+000
  no constraints, skipping   0.000000000000000E+000
  no constraints, skipping   0.000000000000000E+000
  no constraints, skipping   0.000000000000000E+000
  no constraints, skipping   0.000000000000000E+000
 
                                 NWChem DFT Module
                                 -----------------
 
 
                                       H3PO4
 
 
 
 
 solvent parameters
 solvname_short: h2o     
 solvname_long:  water                              
 dielec:       78.4000
 dielecinf:     1.7769

          ---------------
          -cosmo- solvent
          ---------------
 Cosmo: York-Karplus, doi: 10.1021/jp992097l
 dielectric constant -eps-     =  78.40
 screen = (eps-1)/(eps    )    =   0.98724
 surface charge correction     = lagrangian
 -lineq- algorithm             =   0
 -bem- low  level              =   2
 -bem- from -octahedral-
 gaussian surface charge width =   0.98000
 degree of switching           =   1.00000
 switching function tolerance  =   0.00010
 atomic radii = 
 --------------
    1 15.000  2.106
    2  8.000  1.720
    3  8.000  1.720
    4  8.000  1.720
    5  8.000  1.720
    6  1.000  1.300
    7  1.000  1.300
    8  1.000  1.300

 solvent accessible surface
 --------------------------

 ---------- ATOMIC COORDINATES (A.U.) ------------ VDWR(ANG.) --
     1   -0.00000000    0.00000000    0.27078354     2.106
     2   -0.01254622    2.68296359   -1.08055344     1.720
     3    2.32978774   -1.33061645   -1.08055344     1.720
     4   -2.31724152   -1.35234714   -1.08055344     1.720
     5    0.00000000   -0.00000000    3.05409945     1.720
     6   -1.38264932    3.78711123   -0.57620364     1.300
     7    3.97105919   -0.69614618   -0.57620364     1.300
     8   -2.58840987   -3.09096505   -0.57620364     1.300
 number of segments per atom =         32
 number of   points per atom =         32
 atom (   nspa,  nppa )
 ----------------------
    1 (     10,     0 )       0
    2 (     20,     0 )       0
    3 (     17,     0 )       0
    4 (     17,     0 )       0
    5 (     24,     0 )       0
    6 (     17,     0 )       0
    7 (     19,     0 )       0
    8 (     18,     0 )       0
 number of -cosmo- surface points =      142
 molecular surface =    102.559 angstrom**2
 molecular volume  =     56.649 angstrom**3
 G(cav/disp)       =      1.373 kcal/mol
 ...... end of -cosmo- initialization ......


  Caching 1-el integrals 
  Rotation of axis 
   Time after variat. SCF:    533.2
   Time prior to 1st pass:    533.2


         Total DFT energy =     -644.346846734490
      One electron energy =    -1446.385009311173
           Coulomb energy =      580.403248268297
    Exchange-Corr. energy =      -58.990130169347
 Nuclear repulsion energy =      280.466101928923

             COSMO energy =        0.158942548810

 Numeric. integr. density =       49.999999134451

     Total iterative time =     43.9s


                                   COSMO solvation results
                                   -----------------------

                 gas phase energy =      -644.318400602978
                 sol phase energy =      -644.346846734490
 (electrostatic) solvation energy =         0.028446131512 (   17.85 kcal/mol)
 
                  Occupations of the irreducible representations
                  ----------------------------------------------
 
                     irrep           alpha         beta
                     --------     --------     --------
                     a                11.0         11.0
                     e+               14.0         14.0
                     e-                0.0          0.0
 
 Line search: 
     step= 0.50 grad=-5.8D-05 hess= 3.3D-04 energy=   -644.346847 mode=bracket 
 new step= 0.09                   predicted energy=   -644.346902
  no constraints, skipping   0.000000000000000E+000
  no constraints, skipping   0.000000000000000E+000
  no constraints, skipping   0.000000000000000E+000

          --------
          Step   6
          --------
 
                                 NWChem DFT Module
                                 -----------------
 
 
                                       H3PO4
 
 
 
 
 solvent parameters
 solvname_short: h2o     
 solvname_long:  water                              
 dielec:       78.4000
 dielecinf:     1.7769

          ---------------
          -cosmo- solvent
          ---------------
 Cosmo: York-Karplus, doi: 10.1021/jp992097l
 dielectric constant -eps-     =  78.40
 screen = (eps-1)/(eps    )    =   0.98724
 surface charge correction     = lagrangian
 -lineq- algorithm             =   0
 -bem- low  level              =   2
 -bem- from -octahedral-
 gaussian surface charge width =   0.98000
 degree of switching           =   1.00000
 switching function tolerance  =   0.00010
 atomic radii = 
 --------------
    1 15.000  2.106
    2  8.000  1.720
    3  8.000  1.720
    4  8.000  1.720
    5  8.000  1.720
    6  1.000  1.300
    7  1.000  1.300
    8  1.000  1.300

 solvent accessible surface
 --------------------------

 ---------- ATOMIC COORDINATES (A.U.) ------------ VDWR(ANG.) --
     1   -0.00000000    0.00000000    0.26698873     2.106
     2   -0.01170443    2.68525980   -1.08294170     1.720
     3    2.33135542   -1.33249356   -1.08294170     1.720
     4   -2.31965098   -1.35276623   -1.08294170     1.720
     5    0.00000000   -0.00000000    3.05043364     1.720
     6   -1.38257778    3.78526103   -0.57132851     1.300
     7    3.96942111   -0.69528304   -0.57132851     1.300
     8   -2.58684332   -3.08997800   -0.57132851     1.300
 number of segments per atom =         32
 number of   points per atom =         32
 atom (   nspa,  nppa )
 ----------------------
    1 (     10,     0 )       0
    2 (     20,     0 )       0
    3 (     17,     0 )       0
    4 (     17,     0 )       0
    5 (     24,     0 )       0
    6 (     17,     0 )       0
    7 (     19,     0 )       0
    8 (     18,     0 )       0
 number of -cosmo- surface points =      142
 molecular surface =    102.589 angstrom**2
 molecular volume  =     56.665 angstrom**3
 G(cav/disp)       =      1.373 kcal/mol
 ...... end of -cosmo- initialization ......


  Caching 1-el integrals 
  Rotation of axis 
   Time after variat. SCF:    577.3
   Time prior to 1st pass:    577.3


         Total DFT energy =     -644.346891235551
      One electron energy =    -1446.213468914548
           Coulomb energy =      580.314453921440
    Exchange-Corr. energy =      -58.988893226505
 Nuclear repulsion energy =      280.384857055363

             COSMO energy =        0.156159928699

 Numeric. integr. density =       49.999999373161

     Total iterative time =     43.6s


                                   COSMO solvation results
                                   -----------------------

                 gas phase energy =      -644.318479044368
                 sol phase energy =      -644.346891235551
 (electrostatic) solvation energy =         0.028412191183 (   17.83 kcal/mol)
 
                  Occupations of the irreducible representations
                  ----------------------------------------------
 
                     irrep           alpha         beta
                     --------     --------     --------
                     a                11.0         11.0
                     e+               14.0         14.0
                     e-                0.0          0.0
 
  Rotation of axis 


                         DFT ENERGY GRADIENTS

    atom               coordinates                        gradient
                 x          y          z           x          y          z
   1 P      -0.000000   0.000000   0.266989    0.000000   0.000000   0.000833
   2 O      -0.011704   2.685260  -1.082942    0.000119   0.001202  -0.000835
   3 O       2.331355  -1.332494  -1.082942    0.000982  -0.000704  -0.000835
   4 O      -2.319651  -1.352766  -1.082942   -0.001100  -0.000498  -0.000835
   5 O       0.000000  -0.000000   3.050434   -0.000000  -0.000000   0.000159
   6 H      -1.382578   3.785261  -0.571329   -0.000442  -0.000633   0.000504
   7 H       3.969421  -0.695283  -0.571329   -0.000327   0.000700   0.000504
   8 H      -2.586843  -3.089978  -0.571329    0.000770  -0.000067   0.000504
 
  no constraints, skipping   0.000000000000000E+000

  Step       Energy      Delta E   Gmax     Grms     Xrms     Xmax   Walltime
  ---- ---------------- -------- -------- -------- -------- -------- --------
@    6    -644.34689124  8.2D-06  0.00077  0.00037  0.00053  0.00105    629.6
                                                                    

 Restricting overall step due to uphill motion.   alpha=  0.25
  no constraints, skipping   0.000000000000000E+000
  no constraints, skipping   0.000000000000000E+000
  no constraints, skipping   0.000000000000000E+000
  no constraints, skipping   0.000000000000000E+000
 
                                 NWChem DFT Module
                                 -----------------
 
 
                                       H3PO4
 
 
 
 
 solvent parameters
 solvname_short: h2o     
 solvname_long:  water                              
 dielec:       78.4000
 dielecinf:     1.7769

          ---------------
          -cosmo- solvent
          ---------------
 Cosmo: York-Karplus, doi: 10.1021/jp992097l
 dielectric constant -eps-     =  78.40
 screen = (eps-1)/(eps    )    =   0.98724
 surface charge correction     = lagrangian
 -lineq- algorithm             =   0
 -bem- low  level              =   2
 -bem- from -octahedral-
 gaussian surface charge width =   0.98000
 degree of switching           =   1.00000
 switching function tolerance  =   0.00010
 atomic radii = 
 --------------
    1 15.000  2.106
    2  8.000  1.720
    3  8.000  1.720
    4  8.000  1.720
    5  8.000  1.720
    6  1.000  1.300
    7  1.000  1.300
    8  1.000  1.300

 solvent accessible surface
 --------------------------

 ---------- ATOMIC COORDINATES (A.U.) ------------ VDWR(ANG.) --
     1    0.00000000    0.00000000    0.26924394     2.106
     2   -0.01202407    2.68395621   -1.08148393     1.720
     3    2.33038630   -1.33156496   -1.08148393     1.720
     4   -2.31836223   -1.35239125   -1.08148393     1.720
     5    0.00000000    0.00000000    3.05261441     1.720
     6   -1.38268249    3.78617954   -0.57426493     1.300
     7    3.97026891   -0.69565161   -0.57426493     1.300
     8   -2.58758642   -3.09052793   -0.57426493     1.300
 number of segments per atom =         32
 number of   points per atom =         32
 atom (   nspa,  nppa )
 ----------------------
    1 (     10,     0 )       0
    2 (     20,     0 )       0
    3 (     17,     0 )       0
    4 (     17,     0 )       0
    5 (     24,     0 )       0
    6 (     17,     0 )       0
    7 (     19,     0 )       0
    8 (     18,     0 )       0
 number of -cosmo- surface points =      142
 molecular surface =    102.573 angstrom**2
 molecular volume  =     56.657 angstrom**3
 G(cav/disp)       =      1.373 kcal/mol
 ...... end of -cosmo- initialization ......


  Caching 1-el integrals 
  Rotation of axis 
   Time after variat. SCF:    629.8
   Time prior to 1st pass:    629.8


         Total DFT energy =     -644.346865149437
      One electron energy =    -1446.311367261242
           Coulomb energy =      580.365128216421
    Exchange-Corr. energy =      -58.989594904300
 Nuclear repulsion energy =      280.431332428261

             COSMO energy =        0.157636371423

 Numeric. integr. density =       49.999999367693

     Total iterative time =     43.4s


                                   COSMO solvation results
                                   -----------------------

                 gas phase energy =      -644.318432536603
                 sol phase energy =      -644.346865149437
 (electrostatic) solvation energy =         0.028432612834 (   17.84 kcal/mol)
 
                  Occupations of the irreducible representations
                  ----------------------------------------------
 
                     irrep           alpha         beta
                     --------     --------     --------
                     a                11.0         11.0
                     e+               14.0         14.0
                     e-                0.0          0.0
 
 Line search: 
     step= 0.25 grad=-4.9D-05 hess= 6.1D-04 energy=   -644.346865 mode=bracket 
 new step= 0.04                   predicted energy=   -644.346892
  no constraints, skipping   0.000000000000000E+000
  no constraints, skipping   0.000000000000000E+000
  no constraints, skipping   0.000000000000000E+000

          --------
          Step   7
          --------
 
                                 NWChem DFT Module
                                 -----------------
 
 
                                       H3PO4
 
 
 
 
 solvent parameters
 solvname_short: h2o     
 solvname_long:  water                              
 dielec:       78.4000
 dielecinf:     1.7769

          ---------------
          -cosmo- solvent
          ---------------
 Cosmo: York-Karplus, doi: 10.1021/jp992097l
 dielectric constant -eps-     =  78.40
 screen = (eps-1)/(eps    )    =   0.98724
 surface charge correction     = lagrangian
 -lineq- algorithm             =   0
 -bem- low  level              =   2
 -bem- from -octahedral-
 gaussian surface charge width =   0.98000
 degree of switching           =   1.00000
 switching function tolerance  =   0.00010
 atomic radii = 
 --------------
    1 15.000  2.106
    2  8.000  1.720
    3  8.000  1.720
    4  8.000  1.720
    5  8.000  1.720
    6  1.000  1.300
    7  1.000  1.300
    8  1.000  1.300

 solvent accessible surface
 --------------------------

 ---------- ATOMIC COORDINATES (A.U.) ------------ VDWR(ANG.) --
     1    0.00000000    0.00000000    0.26734987     2.106
     2   -0.01175542    2.68505105   -1.08270832     1.720
     3    2.33120013   -1.33234503   -1.08270832     1.720
     4   -2.31944471   -1.35270602   -1.08270832     1.720
     5    0.00000000    0.00000000    3.05078286     1.720
     6   -1.38259494    3.78540882   -0.57179867     1.300
[...]
 
           1    -0.01665    -0.04630     0.00000     0.00067    -0.00088     0.00000
           2    -0.04630     0.01665     0.00000     0.00088     0.00067    -0.00000
           3    -0.00000    -0.00000    -0.11481    -0.00000    -0.00000    -0.00031
           4    -0.02428     0.04234     0.00209    -0.00288    -0.03942     0.02795
           5     0.00927    -0.00503    -0.01641     0.00171     0.02804    -0.02078
           6     0.00533    -0.01665     0.00883     0.00054     0.00569    -0.00387
           7     0.01202     0.03023    -0.01526     0.03664    -0.02453    -0.03197
           8     0.02138     0.03128     0.00639     0.01660    -0.01148    -0.01381
           9     0.01175     0.01295     0.00883     0.00466    -0.00331    -0.00387
          10    -0.01662     0.00484     0.01317     0.00398     0.00225     0.00402
          11     0.04676     0.00264     0.01002     0.04338     0.02118     0.03459
          12    -0.01709     0.00371     0.00883    -0.00520    -0.00238    -0.00387
          13     0.00072     0.00610    -0.00000    -0.00060     0.00016    -0.00000
          14     0.00610    -0.00072    -0.00000    -0.00016    -0.00060     0.00000
          15     0.00000     0.00000     0.18742    -0.00000    -0.00000    -0.00091
          16     0.15293    -0.23954    -0.01367     0.03986     0.64222    -0.45460
          17     0.30456    -0.48629    -0.04614    -0.02696    -0.44644     0.31586
          18    -0.19459     0.34523     0.04457    -0.00581    -0.09757     0.06944
          19     0.16734     0.31288    -0.03313    -0.59128     0.39135     0.50084
          20    -0.24786    -0.47188     0.03491    -0.27783     0.18470     0.23577
          21    -0.20169    -0.34114     0.04457    -0.08159     0.05382     0.06944
          22     0.63855     0.02419     0.04680    -0.05845    -0.02980    -0.04624
          23     0.04083    -0.00067     0.01124    -0.69898    -0.34813    -0.55163
          24     0.39628    -0.00410     0.04457     0.08740     0.04375     0.06944
  
  
 ----------------------------------------------------------------------------
 Normal Eigenvalue ||           Projected Infra Red Intensities
  Mode   [cm**-1]  || [atomic units] [(debye/angs)**2] [(KM/mol)] [arbitrary]
 ------ ---------- || -------------- ----------------- ---------- -----------
    1       -0.000 ||    0.000024           0.001         0.024       0.002
    2       -0.000 ||    0.002059           0.047         2.007       0.133
    3        0.000 ||    0.000057           0.001         0.056       0.004
    4        0.000 ||    0.000668           0.015         0.651       0.043
    5        0.000 ||    0.002254           0.052         2.198       0.145
    6        0.000 ||    0.000126           0.003         0.123       0.008
    7      299.138 ||    0.066953           1.545        65.269       4.315
    8      299.138 ||    0.066953           1.545        65.269       4.315
    9      391.481 ||    0.019377           0.447        18.890       1.249
   10      391.481 ||    0.019377           0.447        18.890       1.249
   11      396.299 ||    0.445146          10.270       433.950      28.688
   12      466.762 ||    0.118254           2.728       115.279       7.621
   13      466.762 ||    0.118254           2.728       115.279       7.621
   14      493.191 ||    0.038176           0.881        37.216       2.460
   15      846.660 ||    0.064631           1.491        63.006       4.165
   16      903.119 ||    0.473826          10.932       461.909      30.536
   17      903.119 ||    0.473826          10.932       461.909      30.536
   18     1109.275 ||    0.273847           6.318       266.960      17.649
   19     1169.340 ||    0.150781           3.479       146.989       9.717
   20     1169.340 ||    0.150781           3.479       146.989       9.717
   21     1255.461 ||    0.428987           9.897       418.198      27.647
   22     3721.975 ||    0.402996           9.297       392.860      25.972
   23     3721.975 ||    0.402996           9.297       392.860      25.972
   24     3733.781 ||    0.003665           0.085         3.573       0.236
 ----------------------------------------------------------------------------



 vib:animation  F
 
 
                                NWChem Input Module
                                -------------------
 
 
                              NWChem Property Module
                              ----------------------
 
 
                                 NWChem DFT Module
                                 -----------------
 
 
                                       H3PO4
 
 
 
 
 solvent parameters
 solvname_short: h2o     
 solvname_long:  water                              
 dielec:       78.4000
 dielecinf:     1.7769

          ---------------
          -cosmo- solvent
          ---------------
 Cosmo: York-Karplus, doi: 10.1021/jp992097l
 dielectric constant -eps-     =  78.40
 screen = (eps-1)/(eps    )    =   0.98724
 surface charge correction     = lagrangian
 -lineq- algorithm             =   0
 -bem- low  level              =   2
 -bem- from -octahedral-
 gaussian surface charge width =   0.98000
 degree of switching           =   1.00000
 switching function tolerance  =   0.00010
 atomic radii = 
 --------------
    1 15.000  2.106
    2  8.000  1.720
    3  8.000  1.720
    4  8.000  1.720
    5  8.000  1.720
    6  1.000  1.300
    7  1.000  1.300
    8  1.000  1.300

 solvent accessible surface
 --------------------------

 ---------- ATOMIC COORDINATES (A.U.) ------------ VDWR(ANG.) --
     1    0.00000000    0.00000000    0.37257256     2.106
     2    0.10306358    2.66880328   -0.98455196     1.720
     3    2.25971965   -1.42365731   -0.98455196     1.720
     4   -2.36278322   -1.24514596   -0.98455196     1.720
     5    0.00000000    0.00000000    3.15432682     1.720
     6   -1.41886239    3.66460008   -0.73954391     1.300
     7    3.88306796   -0.60352917   -0.73954391     1.300
     8   -2.46420557   -3.06107091   -0.73954391     1.300
 number of segments per atom =         32
 number of   points per atom =         32
 atom (   nspa,  nppa )
 ----------------------
    1 (     10,     0 )       0
    2 (     19,     0 )       0
    3 (     18,     0 )       0
    4 (     17,     0 )       0
    5 (     24,     0 )       0
    6 (     18,     0 )       0
    7 (     16,     0 )       0
    8 (     17,     0 )       0
 number of -cosmo- surface points =      139
 molecular surface =    102.254 angstrom**2
 molecular volume  =     56.482 angstrom**3
 G(cav/disp)       =      1.371 kcal/mol
 ...... end of -cosmo- initialization ......


  Caching 1-el integrals 
   Time after variat. SCF:  41405.9
   Time prior to 1st pass:  41405.9


         Total DFT energy =     -644.344059384570
      One electron energy =    -1447.888574426714
           Coulomb energy =      581.168224752065
    Exchange-Corr. energy =      -58.997886740854
 Nuclear repulsion energy =      281.278670821812

             COSMO energy =        0.095506209120

 Numeric. integr. density =       49.999999972439

     Total iterative time =    119.6s


                                   COSMO solvation results
                                   -----------------------

                 gas phase energy =      -644.314929419000
                 sol phase energy =      -644.344059384570
 (electrostatic) solvation energy =         0.029129965571 (   18.28 kcal/mol)

          -----------------------------------------
          Chemical Shielding Tensors (GIAO, in ppm)
          -----------------------------------------

    0 giaofock schwarz done =      89.99%
    0 giaofock schwarz done =      84.73%
 
 solvent parameters
 solvname_short: h2o     
 solvname_long:  water                              
 dielec:       78.4000
 dielecinf:     1.7769

          ---------------
          -cosmo- solvent
          ---------------
 Cosmo: York-Karplus, doi: 10.1021/jp992097l
 dielectric constant -eps-     =  78.40
 screen = (eps-1)/(eps    )    =   0.98724
 surface charge correction     = lagrangian
 -lineq- algorithm             =   0
 -bem- low  level              =   2
 -bem- from -octahedral-
 gaussian surface charge width =   0.98000
 degree of switching           =   1.00000
 switching function tolerance  =   0.00010
 atomic radii = 
 --------------
    1 15.000  2.106
    2  8.000  1.720
    3  8.000  1.720
    4  8.000  1.720
    5  8.000  1.720
    6  1.000  1.300
    7  1.000  1.300
    8  1.000  1.300

 solvent accessible surface
 --------------------------

 ---------- ATOMIC COORDINATES (A.U.) ------------ VDWR(ANG.) --
     1    0.00000000    0.00000000    0.37257256     2.106
     2    0.10306358    2.66880328   -0.98455196     1.720
     3    2.25971965   -1.42365731   -0.98455196     1.720
     4   -2.36278322   -1.24514596   -0.98455196     1.720
     5    0.00000000    0.00000000    3.15432682     1.720
     6   -1.41886239    3.66460008   -0.73954391     1.300
     7    3.88306796   -0.60352917   -0.73954391     1.300
     8   -2.46420557   -3.06107091   -0.73954391     1.300
 number of segments per atom =         32
 number of   points per atom =         32
 atom (   nspa,  nppa )
 ----------------------
    1 (     10,     0 )       0
    2 (     19,     0 )       0
    3 (     18,     0 )       0
    4 (     17,     0 )       0
    5 (     24,     0 )       0
    6 (     18,     0 )       0
    7 (     16,     0 )       0
    8 (     17,     0 )       0
 number of -cosmo- surface points =      139
 molecular surface =    102.254 angstrom**2
 molecular volume  =     56.482 angstrom**3
 G(cav/disp)       =      1.371 kcal/mol
 ...... end of -cosmo- initialization ......


 SCF residual:   6.920931279595879E-005

 Wrote CPHF data to ./molecule.shieldcphf

 Calc. par tensor-> nonrel
      Atom:    1  P 
        Diamagnetic
    964.2959      0.0028      0.0239
      0.0028    964.4327     -0.0178
      0.0239     -0.0178    964.1534

        Paramagnetic
   -748.1063      0.0239      0.1388
      0.0239   -748.8193      0.3336
      0.1388      0.3336   -519.6158

        Total Shielding Tensor
    216.1896      0.0267      0.1626
      0.0267    215.6134      0.3157
      0.1626      0.3157    444.5376

           isotropic =     292.1135
          anisotropy =     228.6369

          Principal Components and Axis System
                 1           2           3
              444.5381    216.1907    215.6117

      1         0.0007      0.9990     -0.0458
      2         0.0014      0.0458      0.9990
      3         1.0000     -0.0008     -0.0013



      Atom:    2  O 
        Diamagnetic
    384.2959     -8.2266     -3.3763
     -8.2266    402.7700    -10.1173
     -3.3763    -10.1173    372.1254

        Paramagnetic
   -198.4610      7.1493     15.3179
      7.1493   -127.3302    -28.0078
     15.3179    -28.0078   -143.9849

        Total Shielding Tensor
    185.8349     -1.0774     11.9416
     -1.0774    275.4398    -38.1251
     11.9416    -38.1251    228.1405

           isotropic =     229.8050
          anisotropy =     100.8946

          Principal Components and Axis System
                 1           2           3
              297.0681    210.7812    181.5658

      1        -0.0611      0.3624      0.9300
      2         0.8689      0.4779     -0.1291
      3        -0.4912      0.8002     -0.3441



      Atom:    3  O 
        Diamagnetic
    405.3331     -3.9235     -7.0161
     -3.9235    382.0873      7.9473
     -7.0161      7.9473    372.4022

        Paramagnetic
   -150.3142    -34.6383    -31.9979
    -34.6383   -174.3597      0.8622
    -31.9979      0.8622   -143.9202

        Total Shielding Tensor
    255.0189    -38.5619    -39.0140
    -38.5619    207.7277      8.8095
    -39.0140      8.8095    228.4820

           isotropic =     230.4095
          anisotropy =     101.5182

          Principal Components and Axis System
                 1           2           3
              298.0883    211.1751    181.9652

      1         0.7845      0.2325      0.5748
      2        -0.3824     -0.5483      0.7437
      3        -0.4881      0.8033      0.3413



      Atom:    4  O 
        Diamagnetic
    390.6552     12.0771     10.4443
     12.0771    396.3701      2.2799
     10.4443      2.2799    372.3348

        Paramagnetic
   -138.1037     27.6528     16.6928
     27.6528   -186.9548     27.4621
     16.6928     27.4621   -144.2105

        Total Shielding Tensor
    252.5515     39.7299     27.1370
     39.7299    209.4153     29.7420
     27.1370     29.7420    228.1243

           isotropic =     230.0304
          anisotropy =     101.7397

          Principal Components and Axis System
                 1           2           3
              297.8569    210.8499    181.3844

      1         0.7220     -0.5956     -0.3521
      2         0.4890      0.0791      0.8687
      3         0.4895      0.7994     -0.3483



      Atom:    5  O 
        Diamagnetic
    386.0689      0.0139      0.1397
      0.0139    386.4993     -0.2038
      0.1397     -0.2038    428.9054

        Paramagnetic
   -225.2008     -0.3184     -0.1412
     -0.3184   -225.8037     -0.3184
     -0.1412     -0.3184   -194.6673

        Total Shielding Tensor
    160.8681     -0.3045     -0.0015
     -0.3045    160.6955     -0.5222
     -0.0015     -0.5222    234.2381

           isotropic =     185.2672
          anisotropy =      73.4619

          Principal Components and Axis System
                 1           2           3
              234.2418    161.0969    160.4630

      1         0.0000      0.7994      0.6008
      2        -0.0071     -0.6008      0.7994
      3         1.0000     -0.0043      0.0057



      Atom:    6  H 
        Diamagnetic
     32.3703    -12.0512     -1.5057
    -12.0512     34.0465     -1.2258
     -1.5057     -1.2258     18.0329

        Paramagnetic
     -2.6872      3.5061      1.2246
      3.5061     -2.9465      0.3977
      1.2246      0.3977      2.2591

        Total Shielding Tensor
     29.6831     -8.5451     -0.2811
     -8.5451     31.1000     -0.8282
     -0.2811     -0.8282     20.2919

           isotropic =      27.0250
          anisotropy =      17.9256

          Principal Components and Axis System
                 1           2           3
               38.9754     22.1351     19.9646

      1        -0.6764      0.6862      0.2678
      2         0.7362      0.6187      0.2742
      3        -0.0225     -0.3826      0.9236



      Atom:    7  H 
        Diamagnetic
     43.9805      5.3202     -0.2885
      5.3202     22.2694      1.9173
     -0.2885      1.9173     17.9198

        Paramagnetic
     -5.9164     -1.6090     -0.2456
     -1.6090      0.2714     -1.2447
     -0.2456     -1.2447      2.2452

        Total Shielding Tensor
     38.0642      3.7112     -0.5341
      3.7112     22.5408      0.6726
     -0.5341      0.6726     20.1650

           isotropic =      26.9233
          anisotropy =      17.9848

          Principal Components and Axis System
                 1           2           3
               38.9132     22.0207     19.8361

      1         0.9752     -0.1960      0.1024
      2         0.2202      0.9025     -0.3701
      3        -0.0199      0.3835      0.9233



      Atom:    8  H 
        Diamagnetic
     23.1051      6.7396      1.7905
      6.7396     43.2115     -0.7167
      1.7905     -0.7167     17.9741

        Paramagnetic
      0.1290     -1.8646     -0.9508
     -1.8646     -5.8329      0.8284
     -0.9508      0.8284      2.2085

        Total Shielding Tensor
     23.2341      4.8750      0.8397
      4.8750     37.3786      0.1116
      0.8397      0.1116     20.1826

           isotropic =      26.9318
          anisotropy =      17.9565

          Principal Components and Axis System
                 1           2           3
               38.9028     22.0344     19.8581

      1         0.2980      0.8800     -0.3700
      2         0.9544     -0.2824      0.0971
      3         0.0191      0.3820      0.9240



 
 
                                NWChem Input Module
                                -------------------
 
 
 
 
                                     CITATION
                                     --------
                Please cite the following reference when publishing
                           results obtained with NWChem:
 
          E. Apr, E. J. Bylaska, W. A. de Jong, N. Govind, K. Kowalski,
       T. P. Straatsma, M. Valiev, H. J. J. van Dam, Y. Alexeev, J. Anchell,
       V. Anisimov, F. W. Aquino, R. Atta-Fynn, J. Autschbach, N. P. Bauman,
     J. C. Becca, D. E. Bernholdt, K. Bhaskaran-Nair, S. Bogatko, P. Borowski,
        J. Boschen, J. Brabec, A. Bruner, E. Caut, Y. Chen, G. N. Chuev,
      C. J. Cramer, J. Daily, M. J. O. Deegan, T. H. Dunning Jr., M. Dupuis,
   K. G. Dyall, G. I. Fann, S. A. Fischer, A. Fonari, H. Frchtl, L. Gagliardi,
      J. Garza, N. Gawande, S. Ghosh, K. Glaesemann, A. W. Gtz, J. Hammond,
       V. Helms, E. D. Hermes, K. Hirao, S. Hirata, M. Jacquelin, L. Jensen,
   B. G. Johnson, H. Jnsson, R. A. Kendall, M. Klemm, R. Kobayashi, V. Konkov,
      S. Krishnamoorthy, M. Krishnan, Z. Lin, R. D. Lins, R. J. Littlefield,
      A. J. Logsdail, K. Lopata, W. Ma, A. V. Marenich, J. Martin del Campo,
   D. Mejia-Rodriguez, J. E. Moore, J. M. Mullin, T. Nakajima, D. R. Nascimento,
    J. A. Nichols, P. J. Nichols, J. Nieplocha, A. Otero-de-la-Roza, B. Palmer,
    A. Panyala, T. Pirojsirikul, B. Peng, R. Peverati, J. Pittner, L. Pollack,
   R. M. Richard, P. Sadayappan, G. C. Schatz, W. A. Shelton, D. W. Silverstein,
   D. M. A. Smith, T. A. Soares, D. Song, M. Swart, H. L. Taylor, G. S. Thomas,
            V. Tipparaju, D. G. Truhlar, K. Tsemekhman, T. Van Voorhis,
     . Vzquez-Mayagoitia, P. Verma, O. Villa, A. Vishnu, K. D. Vogiatzis,
        D. Wang, J. H. Weare, M. J. Williamson, T. L. Windus, K. Woliski,
        A. T. Wong, Q. Wu, C. Yang, Q. Yu, M. Zacharias, Z. Zhang, Y. Zhao,
                                and R. J. Harrison
                        "NWChem: Past, present, and future
                         J. Chem. Phys. 152, 184102 (2020)
                               doi:10.1063/5.0004997
 
                                      AUTHORS
                                      -------
     E. Apra, E. J. Bylaska, N. Govind, K. Kowalski, M. Valiev, W. A. de Jong,
      T. P. Straatsma, H. J. J. van Dam, D. Wang, T. L. Windus, N. P. Bauman,
       A. Panyala, J. Hammond, J. Autschbach, K. Bhaskaran-Nair, J. Brabec,
    K. Lopata, S. A. Fischer, S. Krishnamoorthy, M. Jacquelin, W. Ma, M. Klemm,
       O. Villa, Y. Chen, V. Anisimov, F. Aquino, S. Hirata, M. T. Hackler,
           Eric Hermes, L. Jensen, J. E. Moore, J. C. Becca, V. Konjkov,
            D. Mejia-Rodriguez, T. Risthaus, M. Malagoli, A. Marenich,
   A. Otero-de-la-Roza, J. Mullin, P. Nichols, R. Peverati, J. Pittner, Y. Zhao,
        P.-D. Fan, A. Fonari, M. J. Williamson, R. J. Harrison, J. R. Rehr,
      M. Dupuis, D. Silverstein, D. M. A. Smith, J. Nieplocha, V. Tipparaju,
      M. Krishnan, B. E. Van Kuiken, A. Vazquez-Mayagoitia, M. Swart, Q. Wu,
   T. Van Voorhis, A. A. Auer, M. Nooijen, L. D. Crosby, E. Brown, G. Cisneros,
     G. I. Fann, H. Fruchtl, J. Garza, K. Hirao, R. A. Kendall, J. A. Nichols,
       K. Tsemekhman, K. Wolinski, J. Anchell, D. E. Bernholdt, P. Borowski,
       T. Clark, D. Clerc, H. Dachsel, M. J. O. Deegan, K. Dyall, D. Elwood,
      E. Glendening, M. Gutowski, A. C. Hess, J. Jaffe, B. G. Johnson, J. Ju,
        R. Kobayashi, R. Kutteh, Z. Lin, R. Littlefield, X. Long, B. Meng,
      T. Nakajima, S. Niu, L. Pollack, M. Rosing, K. Glaesemann, G. Sandrone,
      M. Stave, H. Taylor, G. Thomas, J. H. van Lenthe, A. T. Wong, Z. Zhang.

 Total times  cpu:    41647.6s     wall:    41842.6s
