931
	Energy:     690.4319413
N         13.10212       18.35928       30.91044
C         14.10065       18.21848       29.84982
C         13.43159       18.49757       28.51432
O         12.45581       17.84107       28.20046
C         14.68168       16.78821       29.90786
C         15.77997       16.50609       28.87378
S         17.30740       17.45165       29.21748
C         17.87183       16.39857       30.60377
N         13.86746       19.49099       27.69349
C         13.22470       19.79163       26.41366
C         13.47736       18.67607       25.40475
O         14.63658       18.39237       25.13371
C         13.76245       21.13758       25.85218
O         13.60664       22.16353       26.80135
C         13.07743       21.54655       24.53680
N         12.44325       18.05512       24.75588
C         12.64829       17.09805       23.66630
C         12.12777       17.68738       22.35996
O         11.48658       18.72779       22.38387
C         11.97767       15.73239       23.95039
C         12.47771       15.09533       25.22456
C         13.36940       14.00902       25.19360
C         12.03951       15.57651       26.46529
C         13.85180       13.45816       26.38438
C         12.50276       15.00453       27.65118
C         13.42991       13.96510       27.61765
O         13.91325       13.46911       28.77275
N         12.42671       17.09725       21.16618
C         11.99793       17.61850       19.86862
C         11.30848       16.51794       19.06930
O         11.30509       15.36979       19.48196
C         13.24326       18.21819       19.14215
C         12.99287       18.74372       17.70935
C         14.20840       19.41779       17.05176
C         14.60511       20.77939       17.65188
N         13.56097       21.79146       17.48422
N         10.67463       16.82273       17.90785
C         10.12964       15.85180       16.97304
C         10.32692       16.40890       15.57715
O          9.86302       17.51284       15.33710
C          8.62910       15.64737       17.25571
C          7.93461       14.63634       16.30632
C          8.50629       13.21798       16.45373
C          6.43128       14.61209       16.59561
N         10.96670       15.71316       14.59588
C         11.11899       16.25335       13.25104
C         10.11560       15.55582       12.37490
O         10.27955       14.38865       12.04832
C         12.57064       16.14026       12.72045
C         13.54819       16.84505       13.69601
C         12.66951       16.72219       11.29449
C         15.02109       16.69315       13.31437
N          8.98474       16.22223       12.03700
C          7.91259       15.63400       11.26055
C          8.34926       15.57345        9.81604
O          8.58656       16.61880        9.23064
C          6.63936       16.50615       11.42432
C          6.14787       16.54448       12.90133
C          5.24670       17.75138       13.16523
C          5.40439       15.25275       13.27191
N          8.50974       14.38063        9.18165
C          8.80727       14.27366        7.75997
C          7.74929       13.39037        7.11445
O          8.07051       12.45771        6.39058
C         10.25262       13.77407        7.56878
C         10.68058       13.79710        6.12086
O         10.64369       14.84722        5.49671
N         11.11906       12.67310        5.51110
N          6.43766       13.60905        7.40666
C          5.35231       12.79469        6.89568
C          5.03659       13.09746        5.45302
O          5.66290       13.95433        4.84793
N          4.01491       12.43317        4.85158
C          3.53200       12.73133        3.51125
C          2.90651       14.11164        3.49289
O          3.25558       14.91780        2.64265
C          2.44495       11.72484        3.05928
C          2.94009       10.27464        3.01088
C          1.99444        9.26910        2.31874
C          0.58531        9.07728        2.92006
N         -0.36883       10.11758        2.53101
N          1.94477       14.42946        4.40969
C          1.16553       15.66003        4.38689
C          1.50302       16.58612        5.54639
O          1.04798       17.72096        5.50276
C         -0.34092       15.25955        4.38341
O         -0.61565       14.43672        3.27760
C         -1.34371       16.42232        4.42292
N          2.28356       16.21190        6.60433
C          2.58103       17.12700        7.70171
C          4.08296       17.21863        7.87468
O          4.68047       16.21185        8.22355
C          1.93178       16.59630        9.00383
C          1.78917       17.62931       10.15631
C          1.39044       16.89607       11.44231
C          3.03868       18.47246       10.41058
N          4.76387       18.38395        7.67327
C          6.18989       18.50878        7.96324
C          6.45502       19.64151        8.94944
O          5.53918       20.36645        9.31119
C          6.99377       18.70673        6.66252
C          6.85605       17.50325        5.71470
C          7.80336       17.64515        4.51229
C          7.77240       16.43285        3.56583
N          6.49598       16.29699        2.86724
N          7.71916       19.84679        9.41887
C          8.10551       20.94493       10.29063
C          8.79415       20.44655       11.53999
O          9.68246       19.61645       11.41958
N          8.46163       20.93942       12.77246
C          9.16570       20.58428       14.00878
C          8.40644       21.10554       15.22625
O          8.22725       22.31161       15.33016
C         10.59173       21.21645       14.11191
C         11.62612       20.82977       13.04746
C         12.97172       21.43743       13.34921
O         13.13506       22.77740       13.39632
O         13.93667       20.71340       13.53381
N          7.98893       20.25972       16.21701
C          7.40156       20.73721       17.47298
C          8.26260       20.32088       18.65579
O          9.16192       19.51570       18.49552
C          5.95795       20.21278       17.66099
O          5.92760       18.80710       17.74095
C          5.00775       20.72345       16.57136
N          8.05244       20.87868       19.88277
C          8.81972       20.51928       21.07709
C          7.87130       20.16584       22.21757
O          6.66568       20.24046       22.04286
C          9.76742       21.68371       21.47565
O          9.04725       22.84756       21.80058
C         10.82456       21.96592       20.39596
N          8.36828       19.81081       23.44167
C          7.50252       19.56407       24.60117
C          8.30774       19.57931       25.90043
O          9.52511       19.62539       25.85341
C          6.71998       18.22911       24.41737
O          5.64865       18.13891       25.32597
C          7.63494       16.98855       24.50034
N          7.67901       19.55157       27.11223
C          8.41482       19.50982       28.36834
C          8.06716       18.21857       29.07370
O          6.92589       18.05367       29.47996
C          8.06857       20.73296       29.24417
C          8.29589       22.07931       28.53276
C          9.72494       22.28861       28.11111
O         10.71707       22.33170       29.02379
O          9.99077       22.44147       26.92959
N          8.99709       17.22757       29.19630
C          8.70906       15.94236       29.82077
C          9.69653       15.64654       30.93188
O         10.64912       16.39339       31.11082
C          8.77279       14.85275       28.75144
N          9.51820       14.55625       31.73339
C         10.45371       14.21175       32.79707
C         11.62586       13.44697       32.20777
O         12.74909       13.91828       32.31638
C          9.75811       13.51543       34.01617
C          8.68144       14.43963       34.60843
C          9.13897       12.13356       33.74408
N         11.43370       12.26373       31.55823
C         12.50961       11.46391       30.98002
C         12.22589       11.15344       29.51588
O         11.19935       11.56738       28.99820
C         12.73978       10.18550       31.82647
C         11.57876        9.22959       31.96046
O         10.50004        9.46790       31.45189
O         11.72675        8.08983       32.66607
N         13.11871       10.43133       28.78005
C         12.92220       10.09053       27.37401
C         11.66315        9.28669       27.15681
O         10.98136        9.53958       26.18042
C         14.12291        9.31221       26.83240
N         11.27457        8.32082       28.03264
C         10.04640        7.54871       27.86934
C          8.82915        8.45227       27.76983
O          8.05855        8.29310       26.84279
C          9.87152        6.57919       29.04204
N          8.59993        9.42250       28.69298
C          7.44532       10.31866       28.69102
C          7.37107       11.15962       27.42035
O          6.30098       11.22399       26.84523
C          7.46733       11.20279       29.96418
O          7.50956       10.39455       31.11507
C          6.26102       12.15159       30.05356
N          8.44626       11.82214       26.90959
C          8.38084       12.60092       25.66921
C          7.90967       11.75797       24.50531
O          7.00507       12.18264       23.81176
C          9.74163       13.18478       25.31695
N          8.45025       10.52989       24.27270
C          8.01475        9.60111       23.23226
C          6.52088        9.39201       23.31107
O          5.86253        9.44146       22.29372
C          8.70560        8.22793       23.43749
C          8.39487        7.22571       22.31097
C          8.97006        5.86416       22.61204
O         10.29618        5.67904       22.78080
O          8.22289        4.90338       22.70619
N          5.93716        9.15769       24.51252
C          4.52651        8.88228       24.74956
C          3.65144        9.99919       24.20183
O          2.75524        9.70802       23.42788
C          4.34292        8.68151       26.27157
C          3.01248        8.07786       26.72430
C          2.93520        7.98783       28.26724
C          4.06491        7.16055       28.91482
N          3.89119        7.10473       30.36260
N          3.85731       11.30260       24.55072
C          3.06716       12.41170       24.01587
C          3.33692       12.63762       22.52765
O          2.48130       13.22305       21.88491
C          3.30644       13.71551       24.84338
C          2.54688       14.93526       24.28656
C          2.86891       13.50577       26.30493
N          4.49068       12.24321       21.90889
C          4.70165       12.40296       20.47288
C          4.05696       11.26268       19.69570
O          3.91154       11.39645       18.49256
C          6.19772       12.48364       20.08598
C          6.94292       13.71569       20.56167
C          6.47205       15.01106       20.26374
C          8.16659       13.58084       21.24295
C          7.21326       16.13960       20.63078
C          8.90714       14.71281       21.59957
C          8.43453       15.98945       21.28793
N          3.68317       10.09875       20.29708
C          2.96151        9.02953       19.62362
C          1.52670        9.44988       19.48651
O          1.00409        9.37983       18.39512
C          3.00860        7.71089       20.42968
C          4.38703        7.02455       20.45662
C          4.82122        6.47969       19.08171
C          6.17024        5.74653       19.11715
N          6.11664        4.55240       19.95727
N          0.82750        9.90453       20.56209
C         -0.55387       10.36515       20.49392
C         -0.67912       11.52065       19.52168
O         -1.53543       11.46491       18.66202
C         -1.06444       10.79313       21.88550
C         -1.11479        9.60425       22.86080
C         -1.71237       10.01004       24.18117
O         -1.16195       10.86701       24.85660
N         -2.85039        9.42920       24.62965
N          0.17938       12.57366       19.57588
C          0.18247       13.71101       18.65362
C          0.27742       13.25882       17.20345
O         -0.52793       13.69284       16.39652
C          1.37780       14.62934       18.99723
C          1.52529       15.79462       18.04973
C          0.51294       16.76053       17.92228
C          2.69211       15.91771       17.27870
C          0.66565       17.82768       17.02985
C          2.84124       16.98281       16.39262
C          1.82861       17.94193       16.26022
O          1.96145       18.97199       15.40017
N          1.23592       12.38280       16.80707
C          1.37994       11.89150       15.43949
C          0.09467       11.23933       14.95549
O         -0.37864       11.58347       13.88985
C          2.54149       10.88864       15.37121
N         -0.52442       10.29239       15.70463
C         -1.75838        9.60071       15.34603
C         -2.96001       10.54273       15.23860
O         -3.91193       10.18872       14.55737
C         -2.02490        8.50580       16.40654
C         -3.22827        7.65069       16.11488
O         -3.27196        7.00010       15.08171
N         -4.25205        7.58176       16.99809
N         -3.02267       11.71902       15.92951
C         -4.15303       12.64617       15.84498
C         -4.15085       13.40092       14.52106
O         -5.17233       13.96551       14.15874
C         -4.11146       13.67369       16.99991
C         -4.22794       13.05724       18.37433
O         -4.39533       11.85570       18.51348
O         -4.15407       13.84026       19.47078
N         -3.02317       13.46342       13.76049
C         -2.91494       14.10116       12.45937
C         -2.65738       13.03778       11.38429
O         -2.40242       13.39837       10.24350
C         -1.77432       15.14536       12.47279
C         -2.01849       16.33165       13.38351
O         -2.13954       17.44353       12.89066
N         -2.07276       16.19811       14.72852
N         -2.77893       11.70396       11.66076
C         -2.63446       10.64499       10.67722
C         -1.20129       10.27039       10.36277
O         -1.01997        9.32843        9.60454
N         -0.13228       10.91319       10.91424
C          1.24473       10.49323       10.66921
C          1.46138        9.08798       11.24140
O          1.34416        8.90113       12.44385
C          2.25941       11.50012       11.28462
C          3.70067       11.04145       11.03255
C          2.09813       12.91938       10.71064
N          1.75874        8.05409       10.40556
C          1.96235        6.66610       10.80232
C          3.29060        6.17150       10.22693
O          3.28476        5.32325        9.34408
C          0.75733        5.84755       10.27961
C          0.84492        4.38190       10.63262
O          0.89696        3.97477       11.91851
O          0.86134        3.54620        9.74256
N          4.47748        6.67281       10.67558
C          5.76482        6.30495       10.09139
C          6.69978        5.62107       11.06740
O          6.33801        5.41301       12.21503
N          7.93983        5.22263       10.64581
C          8.92575        4.55911       11.50473
C          9.40584        5.50455       12.59537
O          9.08749        6.67865       12.53319
C         10.17545        4.12257       10.68421
C          9.90608        3.17588        9.49385
C          9.44589        1.77396        9.82380
O          9.34584        1.30133       11.08553
O          9.18487        1.02132        8.89889
N         10.16246        5.06151       13.64318
C         10.64759        5.95318       14.69606
C         12.08473        5.65345       15.07011
O         12.35590        4.53991       15.49984
C          9.80339        5.83220       15.98051
C          8.41166        6.35546       15.78327
C          7.37918        5.74523       15.08296
C          7.90120        7.55333       16.24569
N          6.27750        6.52843       15.10377
C          6.60479        7.62722       15.80571
C          8.48102        8.58038       16.99464
C          5.79998        8.73197       16.07970
C          7.69251        9.70477       17.28649
C          6.36136        9.78246       16.82685
N         13.03395        6.63800       15.04238
C         14.35107        6.47652       15.65739
C         14.51264        7.47923       16.78919
O         13.85271        8.51031       16.78219
C         15.51192        6.63276       14.64827
O         15.59764        7.94961       14.16498
C         15.42503        5.62911       13.49022
N         15.36323        7.21569       17.81969
C         15.60282        8.13822       18.92203
C         17.09371        8.30985       19.12588
O         17.78628        7.31706       19.30568
C         14.94134        7.61696       20.21312
C         15.23263        8.53140       21.38860
C         14.88764        9.89590       21.34752
C         15.87578        8.02734       22.53144
C         15.19445       10.73770       22.41929
C         16.17042        8.86965       23.60716
C         15.83703       10.22573       23.55308
O         16.14189       11.02563       24.59267
N         17.64128        9.55641       19.17884
C         19.04998        9.80208       19.43938
C         19.15668       10.48367       20.79301
O         18.71796       11.61725       20.91896
C         19.61400       10.67682       18.29563
C         21.10066       10.94467       18.31305
O         21.94506       10.35481       19.18471
O         21.56316       11.70229       17.47525
N         19.64900        9.81581       21.87901
C         19.67095       10.40946       23.21705
C         20.73383       11.49720       23.35179
O         20.71851       12.21429       24.34035
C         19.87218        9.30676       24.27829
C         19.72327        9.81461       25.69113
O         18.67820       10.33886       26.04235
O         20.72509        9.68063       26.58460
N         21.70039       11.66628       22.40809
C         22.70702       12.71775       22.45161
C         22.05812       14.07801       22.34139
O         22.37982       14.95841       23.12682
C         23.69504       12.54572       21.29000
N         21.11515       14.30647       21.38419
C         20.50114       15.60704       21.14958
C         19.06324       15.66538       21.65075
O         18.45649       16.71950       21.51938
C         20.56536       15.94847       19.63470
O         19.75580       15.07421       18.88160
C         22.00214       15.96495       19.08848
N         18.44590       14.58962       22.22935
C         17.05680       14.58882       22.67667
C         16.15378       14.91471       21.50038
O         15.38969       15.86606       21.55940
C         16.81464       15.52766       23.89233
C         17.42147       15.04127       25.22221
C         18.95266       15.08470       25.30579
C         19.41927       14.57589       26.67676
N         20.87192       14.65369       26.79147
N         16.23750       14.16571       20.36687
C         15.46160       14.42251       19.16283
C         14.78318       13.14342       18.70972
O         15.46640       12.14878       18.52608
C         16.41370       14.95741       18.06279
O         17.07915       16.11149       18.51461
C         15.68807       15.26795       16.74500
N         13.45453       13.12780       18.41158
C         12.79043       11.98590       17.79114
C         12.57175       12.30168       16.32592
O         12.87610       13.40871       15.91032
C         11.44496       11.65158       18.47273
C         11.58024       11.23745       19.91318
C         11.86993       12.18110       20.91223
C         11.38838        9.89350       20.27571
C         11.95618       11.78632       22.24858
C         11.50224        9.50280       21.60899
C         11.77867       10.44768       22.59872
N         12.05561       11.37012       15.47543
C         11.87021       11.60820       14.04504
C         10.89562       10.58313       13.48807
O         11.14980        9.39499       13.61950
C         13.20708       11.52094       13.24020
O         13.71959       10.21725       13.25388
C         14.32100       12.48807       13.65681
N          9.75746       10.97472       12.84961
C          8.78104       10.03555       12.30796
C          8.72338       10.17503       10.79235
O          8.46079       11.26005       10.30625
C          7.41556       10.20099       13.02896
C          6.81317       11.60884       12.91810
C          6.41325        9.15110       12.53444
N          8.99499        9.10965        9.98131
C          9.09762        9.20122        8.52667
C          8.06307        8.32484        7.84534
O          8.07626        7.12263        8.05059
C         10.52702        8.76324        8.10594
O         11.48658        9.61431        8.68104
C         10.72473        8.69539        6.58256
N          7.20942        8.85589        6.92293
C          6.33024        8.04509        6.08983
C          6.91501        7.99681        4.69761
O          7.07736        9.02804        4.06342
C          4.90793        8.62934        6.01382
C          4.10017        8.47602        7.30292
C          2.70082        8.99323        7.07635
O          2.51058       10.18723        6.92521
O          1.64714        8.15048        7.01896
O          7.26545        6.81759        4.13955
O         12.06209        8.11511       11.17331
O         16.62616       10.92893       16.07855
O         13.70537        5.94132        9.67051
O          0.66481       13.11974        7.52900
O          8.90741        1.94631       14.64343
O         20.95890       13.12869       31.52612
O         -4.20117        9.51807       20.76944
O         12.93431       21.91612       31.55300
O          3.76677       18.61592        3.77135
O         23.58539       10.97811       25.55763
O         10.91238       18.57595        7.29920
O         12.44240        4.36806       19.91524
O         15.43264       14.83971       33.55006
O          5.11360       15.80002       28.07519
O         -5.42902       17.12162       14.73886
O          7.34318        5.43612       25.84013
O         22.15113       11.69312       28.96323
O         24.50368        9.39445       17.90521
O         -1.31199       10.01692        6.56687
O         -6.12612       14.14150       10.73309
O          2.80802        7.21285       14.47739
O         15.47936        9.47982        8.81113
O         14.39719       22.35633        4.44939
O         12.38310       15.09647       35.95673
H         12.67979       19.31278       30.87686
H         13.55640       18.23605       31.84431
H         14.92243       18.94696       30.02652
H         15.08606       16.58490       30.92100
H         13.86077       16.06884       29.75933
H         16.02829       15.42428       28.86173
H         15.42717       16.73392       27.84587
H         18.96530       16.53053       30.72914
H         17.71548       15.32076       30.38901
H         17.36447       16.69064       31.54653
H         14.65865       20.07359       28.00819
H         12.13354       19.92901       26.58292
H         14.85162       21.03503       25.65198
H         12.63698       22.25645       26.98866
H         11.98240       21.66277       24.68656
H         13.25051       20.78912       23.74407
H         13.49228       22.51447       24.18397
H         11.47641       18.32047       24.98804
H         13.73485       16.91849       23.52594
H         12.20850       15.06144       23.09520
H         10.87111       15.83177       24.00206
H         13.71456       13.60255       24.25430
H         11.32637       16.38863       26.51402
H         14.55453       12.63822       26.35279
H         12.14643       15.38205       28.59871
H         14.59294       12.78058       28.79245
H         13.02361       16.25877       21.17028
H         11.26555       18.43922       20.00698
H         13.61084       19.05196       19.77650
H         14.04493       17.45382       19.08517
H         12.76123       17.87100       17.06481
H         12.13318       19.44362       17.69147
H         15.07477       18.72333       17.09951
H         13.97312       19.58200       15.97770
H         14.86660       20.68348       18.72521
H         15.51258       21.13573       17.11812
H         12.71678       21.55455       18.05014
H         13.29511       21.87220       16.47519
H         10.59926       17.81211       17.65059
H         10.65922       14.88284       17.08420
H          8.51321       15.29517       18.30137
H          8.11978       16.63377       17.17007
H          8.06163       14.96286       15.25111
H          8.40162       12.87005       17.50296
H          9.57433       13.17909       16.16243
H          7.96458       12.51264       15.78928
H          6.23353       14.30029       17.63361
H          5.91851       13.89630       15.91907
H          5.99626       15.62333       16.44819
H         11.27270       14.75272       14.78121
H         10.86938       17.33682       13.25500
H         12.82811       15.06681       12.66149
H         13.43356       16.40158       14.70850
H         13.30090       17.92589       13.76428
H         12.42175       17.80471       11.29377
H         11.97309       16.19905       10.60541
H         13.68360       16.57982       10.87169
H         15.29910       15.61931       13.26599
H         15.64999       17.18793       14.08380
H         15.24288       17.17722       12.34265
H          8.85993       17.17866       12.40326
H          7.68735       14.61476       11.64182
H          5.81556       16.16301       10.76119
H          6.91580       17.53559       11.10587
H          7.01277       16.68406       13.58347
H          4.27489       17.64827       12.66011
H          5.75142       18.69116       12.85425
H          5.05126       17.83742       14.24937
H          4.53376       15.09923       12.59826
H          5.01614       15.31485       14.30604
H          6.06820       14.37117       13.20062
H          8.38625       13.51826        9.72133
H          8.74088       15.27712        7.29107
H         10.93486       14.45249        8.12578
H         10.35559       12.75639        8.00425
H         11.41401       12.69126        4.52371
H         11.17564       11.78682        6.02722
H          6.20159       14.34213        8.08726
H          5.57802       11.71826        7.05230
H          4.43004       13.03319        7.46980
H          3.53646       11.70544        5.39305
H          4.36852       12.66419        2.77915
H          1.59431       11.78828        3.76280
H          2.11509       12.01642        2.03696
H          3.89534       10.24551        2.44210
H          3.14447        9.92315        4.04133
H          1.90404        9.49647        1.23437
H          2.51297        8.28843        2.40310
H          0.18528        8.12616        2.50642
H          0.62874        8.96586        4.02478
H         -0.37856       10.23232        1.49113
H         -0.19107       11.03230        2.98894
H          1.72299       13.74051        5.14275
H          1.40204       16.23391        3.46392
H         -0.53386       14.65715        5.29970
H         -0.48060       14.98336        2.45987
H         -1.20345       17.09450        3.55181
H         -1.24979       17.00273        5.36324
H         -2.37760       16.01620        4.40605
H          2.65324       15.25151        6.66077
H          2.15391       18.13088        7.49384
H          2.50070       15.69984        9.33899
H          0.89868       16.24763        8.78101
H          0.97868       18.34379        9.89074
H          2.19175       16.19343       11.75908
H          0.46411       16.31883       11.27166
H          1.20717       17.61915       12.26587
H          3.92495       17.82573       10.55265
H          2.89297       19.13203       11.29280
H          3.21477       19.14639        9.55277
H          4.25731       19.20931        7.31837
H          6.55715       17.58452        8.44265
H          6.67217       19.63734        6.14607
H          8.06891       18.80598        6.92173
H          7.12525       16.57616        6.26256
H          5.80201       17.41849        5.38313
H          7.56941       18.57049        3.94275
H          8.84190       17.73034        4.90232
H          8.56954       16.56434        2.80259
H          7.99704       15.50035        4.12881
H          6.29590       17.16811        2.32489
H          5.72039       16.12642        3.54282
H          8.47213       19.21683        9.10646
H          7.25462       21.61281       10.54269
H          8.84922       21.55215        9.73198
H          7.66725       21.59477       12.83141
H          9.23238       19.48207       14.07129
H         10.49541       22.32433       14.11088
H         11.01389       20.90891       15.09676
H         11.72154       19.72318       13.02066
H         11.32247       21.21194       12.05351
H         12.40446       23.38893       13.22974
H          8.13786       19.24765       16.10236
H          7.37162       21.84834       17.47850
H          5.56616       20.60796       18.62395
H          6.06974       18.44045       16.82975
H          5.31894       20.36079       15.56901
H          4.99763       21.83425       16.56603
H          3.97849       20.36403       16.78028
H          7.33801       21.61609       19.96783
H          9.45085       19.62861       20.88332
H         10.34691       21.39174       22.37628
H          8.72764       23.25856       20.95606
H         10.35159       22.29035       19.44551
H         11.42573       21.05132       20.20293
H         11.51173       22.76722       20.74180
H          9.38803       19.78936       23.55177
H          6.79355       20.41839       24.66248
H          6.26090       18.21971       23.40785
H          5.96015       17.68427       26.14871
H          8.08268       16.88741       25.51240