 *******************************************************************************
 **                                                                           **
 **                              MOPAC v22.1.0                                **
 **                                                                           **
 *******************************************************************************
 **          Digital Object Identifier (DOI): 10.5281/zenodo.6511958          **
 **    Visit the DOI location for information on how to cite this program.    **
 *******************************************************************************

                              PM6 CALCULATION RESULTS

 *******************************************************************************
 *  CALCULATION DONE:                                Tue Dec 12 20:15:14 2023  *
 *  PM6        - The PM6 Hamiltonian to be used
 *  SINGLET    - SPIN STATE DEFINED AS A SINGLET
 *
 *
 *
 *                 CHARGE ON SYSTEM = 0
 *
 *
 *
 *  T=         - A TIME OF 172800.0 SECONDS REQUESTED
 *  DUMP=N     - RESTART FILE WRITTEN EVERY 7200.0 SECONDS REQUESTED
 *  AUX        - OUTPUT AUXILIARY INFORMATION
 *  LARGE      - EXPANDED OUTPUT TO BE PRINTED
 *******************************************************************************
 AUX LARGE CHARGE=0 SINGLET  PM6
 3 methanols

   ATOM   CHEMICAL          X               Y               Z
  NUMBER   SYMBOL      (ANGSTROMS)     (ANGSTROMS)     (ANGSTROMS)
 
     1       C         -2.70319000  *   1.36448000  *   3.52131000  *
     2       O         -2.42873000  *   1.24747000  *   2.13251000  *
     3       H         -2.31741000  *   2.32226000  *   3.87835000  *
     4       H         -2.20968000  *   0.55121000  *   4.05887000  *
     5       H         -3.78290000  *   1.32371000  *   3.68374000  *
     6       H         -2.78791000  *   0.38389000  *   1.85568000  *
     7       C         -1.09024000  *   3.58588000  *   0.04568000  *
     8       H         -1.33777000  *   2.84771000  *  -0.72102000  *
     9       O         -0.53445000  *   2.92876000  *   1.17294000  *
    10       H         -1.98818000  *   4.13039000  *   0.34763000  *
    11       H         -0.35525000  *   4.28966000  *  -0.35178000  *
    12       H         -1.23085000  *   2.30743000  *   1.49012000  *
    13       C          1.61713000  *   3.26789000  *   3.61049000  *
    14       H          2.52409000  *   3.45804000  *   4.18909000  *
    15       H          0.84438000  *   3.98311000  *   3.90313000  *
    16       H          1.27378000  *   2.24785000  *   3.80028000  *
    17       O          1.90773000  *   3.42083000  *   2.23436000  *
    18       H          1.06273000  *   3.24753000  *   1.75906000  *
 


          CARTESIAN COORDINATES 

    NO.       ATOM           X           Y           Z

     1         C         -2.7032      1.3645      3.5213
     2         O         -2.4287      1.2475      2.1325
     3         H         -2.3174      2.3223      3.8784
     4         H         -2.2097      0.5512      4.0589
     5         H         -3.7829      1.3237      3.6837
     6         H         -2.7879      0.3839      1.8557
     7         C         -1.0902      3.5859      0.0457
     8         H         -1.3378      2.8477     -0.7210
     9         O         -0.5344      2.9288      1.1729
    10         H         -1.9882      4.1304      0.3476
    11         H         -0.3553      4.2897     -0.3518
    12         H         -1.2308      2.3074      1.4901
    13         C          1.6171      3.2679      3.6105
    14         H          2.5241      3.4580      4.1891
    15         H          0.8444      3.9831      3.9031
    16         H          1.2738      2.2479      3.8003
    17         O          1.9077      3.4208      2.2344
    18         H          1.0627      3.2475      1.7591

 General Reference for PM6:
 "Optimization of Parameters for Semiempirical Methods V: Modification of NDDO Approximations
 and Application to 70 Elements", J. J. P. Stewart, J. Mol. Mod., 13, 1173-1213 (2007)
 URL: https://link.springer.com/article/10.1007/s00894-007-0233-4

           Empirical Formula: C3 H12 O3  =    18 atoms



      MOLECULAR POINT GROUP   :   C1  


 SINGLET STATE CALCULATION


      RHF CALCULATION, NO. OF DOUBLY OCCUPIED LEVELS = 21


          Geometry optimization using EF

          DIAGONAL MATRIX USED AS START HESSIAN

 CYCLE:     1 TIME:   0.031 TIME LEFT:  2.00D  GRAD.:    45.258 HEAT: -147.6806
 CYCLE:     2 TIME:   0.055 TIME LEFT:  2.00D  GRAD.:    69.791 HEAT: -147.9394
 CYCLE:     3 TIME:   0.023 TIME LEFT:  2.00D  GRAD.:    49.376 HEAT: -149.3006
 CYCLE:     4 TIME:   0.031 TIME LEFT:  2.00D  GRAD.:    43.052 HEAT: -149.7550
 CYCLE:     5 TIME:   0.047 TIME LEFT:  2.00D  GRAD.:    24.737 HEAT: -150.4156
 CYCLE:     6 TIME:   0.023 TIME LEFT:  2.00D  GRAD.:    30.306 HEAT: -150.4667
 CYCLE:     7 TIME:   0.023 TIME LEFT:  2.00D  GRAD.:    23.663 HEAT: -150.7779
 CYCLE:     8 TIME:   0.055 TIME LEFT:  2.00D  GRAD.:    17.202 HEAT: -150.9226
 CYCLE:     9 TIME:   0.023 TIME LEFT:  2.00D  GRAD.:    15.579 HEAT: -151.0126
 CYCLE:    10 TIME:   0.023 TIME LEFT:  2.00D  GRAD.:     9.655 HEAT: -151.1477
 CYCLE:    11 TIME:   0.023 TIME LEFT:  2.00D  GRAD.:     6.535 HEAT: -151.2473
 CYCLE:    12 TIME:   0.031 TIME LEFT:  2.00D  GRAD.:     7.295 HEAT: -151.3750
 CYCLE:    13 TIME:   0.023 TIME LEFT:  2.00D  GRAD.:     9.192 HEAT: -151.5501
 CYCLE:    14 TIME:   0.023 TIME LEFT:  2.00D  GRAD.:     9.357 HEAT: -151.6678
 CYCLE:    15 TIME:   0.031 TIME LEFT:  2.00D  GRAD.:     5.279 HEAT: -151.7433
 CYCLE:    16 TIME:   0.023 TIME LEFT:  2.00D  GRAD.:     4.296 HEAT: -151.7930
 CYCLE:    17 TIME:   0.031 TIME LEFT:  2.00D  GRAD.:     3.778 HEAT: -151.8178
 CYCLE:    18 TIME:   0.023 TIME LEFT:  2.00D  GRAD.:     2.354 HEAT: -151.8302
 CYCLE:    19 TIME:   0.023 TIME LEFT:  2.00D  GRAD.:     2.902 HEAT: -151.8448
 CYCLE:    20 TIME:   0.031 TIME LEFT:  2.00D  GRAD.:     3.427 HEAT: -151.8558
 CYCLE:    21 TIME:   0.023 TIME LEFT:  2.00D  GRAD.:     3.158 HEAT: -151.8707
 CYCLE:    22 TIME:   0.023 TIME LEFT:  2.00D  GRAD.:     2.959 HEAT: -151.8928
 CYCLE:    23 TIME:   0.031 TIME LEFT:  2.00D  GRAD.:     3.157 HEAT: -151.9134
 CYCLE:    24 TIME:   0.023 TIME LEFT:  2.00D  GRAD.:     2.572 HEAT: -151.9342
 CYCLE:    25 TIME:   0.023 TIME LEFT:  2.00D  GRAD.:     1.625 HEAT: -151.9438
 CYCLE:    26 TIME:   0.023 TIME LEFT:  2.00D  GRAD.:     1.484 HEAT: -151.9477
 CYCLE:    27 TIME:   0.023 TIME LEFT:  2.00D  GRAD.:     1.326 HEAT: -151.9504
 CYCLE:    28 TIME:   0.031 TIME LEFT:  2.00D  GRAD.:     1.291 HEAT: -151.9542
 CYCLE:    29 TIME:   0.023 TIME LEFT:  2.00D  GRAD.:     1.531 HEAT: -151.9623
 CYCLE:    30 TIME:   0.023 TIME LEFT:  2.00D  GRAD.:     1.875 HEAT: -151.9710
 CYCLE:    31 TIME:   0.031 TIME LEFT:  2.00D  GRAD.:     2.079 HEAT: -151.9819
 CYCLE:    32 TIME:   0.023 TIME LEFT:  2.00D  GRAD.:     2.066 HEAT: -151.9939
 CYCLE:    33 TIME:   0.023 TIME LEFT:  2.00D  GRAD.:     1.646 HEAT: -152.0004
 CYCLE:    34 TIME:   0.031 TIME LEFT:  2.00D  GRAD.:     1.539 HEAT: -152.0095
 CYCLE:    35 TIME:   0.023 TIME LEFT:  2.00D  GRAD.:     1.566 HEAT: -152.0134
 CYCLE:    36 TIME:   0.031 TIME LEFT:  2.00D  GRAD.:     1.917 HEAT: -152.0224
 CYCLE:    37 TIME:   0.031 TIME LEFT:  2.00D  GRAD.:     2.461 HEAT: -152.0330
 CYCLE:    38 TIME:   0.062 TIME LEFT:  2.00D  GRAD.:     4.322 HEAT: -152.0590
 CYCLE:    39 TIME:   0.023 TIME LEFT:  2.00D  GRAD.:     4.257 HEAT: -152.0854
 CYCLE:    40 TIME:   0.055 TIME LEFT:  2.00D  GRAD.:     5.157 HEAT: -152.1567
 CYCLE:    41 TIME:   0.055 TIME LEFT:  2.00D  GRAD.:     3.398 HEAT: -152.1648
 CYCLE:    42 TIME:   0.023 TIME LEFT:  2.00D  GRAD.:     1.594 HEAT: -152.1870
 CYCLE:    43 TIME:   0.031 TIME LEFT:  2.00D  GRAD.:     2.080 HEAT: -152.1972
 CYCLE:    44 TIME:   0.023 TIME LEFT:  2.00D  GRAD.:     2.385 HEAT: -152.2064
 CYCLE:    45 TIME:   0.023 TIME LEFT:  2.00D  GRAD.:     2.275 HEAT: -152.2214
 CYCLE:    46 TIME:   0.031 TIME LEFT:  2.00D  GRAD.:     2.180 HEAT: -152.2319
 CYCLE:    47 TIME:   0.023 TIME LEFT:  2.00D  GRAD.:     2.430 HEAT: -152.2538
 CYCLE:    48 TIME:   0.031 TIME LEFT:  2.00D  GRAD.:     3.047 HEAT: -152.2693
 CYCLE:    49 TIME:   0.023 TIME LEFT:  2.00D  GRAD.:     3.266 HEAT: -152.2924
 CYCLE:    50 TIME:   0.031 TIME LEFT:  2.00D  GRAD.:     2.799 HEAT: -152.3139
 CYCLE:    51 TIME:   0.156 TIME LEFT:  2.00D  GRAD.:     3.450 HEAT: -152.3219
 CYCLE:    52 TIME:   0.023 TIME LEFT:  2.00D  GRAD.:     2.389 HEAT: -152.3330
 CYCLE:    53 TIME:   0.031 TIME LEFT:  2.00D  GRAD.:     2.197 HEAT: -152.3418
 CYCLE:    54 TIME:   0.023 TIME LEFT:  2.00D  GRAD.:     2.144 HEAT: -152.3508
 CYCLE:    55 TIME:   0.023 TIME LEFT:  2.00D  GRAD.:     2.021 HEAT: -152.3662
 CYCLE:    56 TIME:   0.023 TIME LEFT:  2.00D  GRAD.:     2.205 HEAT: -152.3736
 CYCLE:    57 TIME:   0.031 TIME LEFT:  2.00D  GRAD.:     2.418 HEAT: -152.3816
 CYCLE:    58 TIME:   0.023 TIME LEFT:  2.00D  GRAD.:     2.800 HEAT: -152.3896
 CYCLE:    59 TIME:   0.023 TIME LEFT:  2.00D  GRAD.:     2.212 HEAT: -152.3968
 CYCLE:    60 TIME:   0.031 TIME LEFT:  2.00D  GRAD.:     1.444 HEAT: -152.4047
 CYCLE:    61 TIME:   0.023 TIME LEFT:  2.00D  GRAD.:     1.278 HEAT: -152.4076
 CYCLE:    62 TIME:   0.023 TIME LEFT:  2.00D  GRAD.:     1.230 HEAT: -152.4116
 CYCLE:    63 TIME:   0.023 TIME LEFT:  2.00D  GRAD.:     1.401 HEAT: -152.4160
 CYCLE:    64 TIME:   0.031 TIME LEFT:  2.00D  GRAD.:     1.625 HEAT: -152.4213
 CYCLE:    65 TIME:   0.023 TIME LEFT:  2.00D  GRAD.:     1.909 HEAT: -152.4292
 CYCLE:    66 TIME:   0.023 TIME LEFT:  2.00D  GRAD.:     2.946 HEAT: -152.4470
 CYCLE:    67 TIME:   0.031 TIME LEFT:  2.00D  GRAD.:     3.458 HEAT: -152.4668
 CYCLE:    68 TIME:   0.031 TIME LEFT:  2.00D  GRAD.:     4.317 HEAT: -152.5275
 CYCLE:    69 TIME:   0.023 TIME LEFT:  2.00D  GRAD.:     5.906 HEAT: -152.5640
 CYCLE:    70 TIME:   0.023 TIME LEFT:  2.00D  GRAD.:     5.000 HEAT: -152.5901
 CYCLE:    71 TIME:   0.055 TIME LEFT:  2.00D  GRAD.:     6.187 HEAT: -152.6293
 CYCLE:    72 TIME:   0.047 TIME LEFT:  2.00D  GRAD.:     4.220 HEAT: -152.6426
 CYCLE:    73 TIME:   0.023 TIME LEFT:  2.00D  GRAD.:     1.592 HEAT: -152.6704
 CYCLE:    74 TIME:   0.023 TIME LEFT:  2.00D  GRAD.:     2.416 HEAT: -152.6928
 CYCLE:    75 TIME:   0.031 TIME LEFT:  2.00D  GRAD.:     4.808 HEAT: -152.7123
 CYCLE:    76 TIME:   0.023 TIME LEFT:  2.00D  GRAD.:     2.864 HEAT: -152.7342
 CYCLE:    77 TIME:   0.023 TIME LEFT:  2.00D  GRAD.:     4.844 HEAT: -152.7578
 CYCLE:    78 TIME:   0.031 TIME LEFT:  2.00D  GRAD.:     4.489 HEAT: -152.7731
 CYCLE:    79 TIME:   0.023 TIME LEFT:  2.00D  GRAD.:     3.020 HEAT: -152.7966
 CYCLE:    80 TIME:   0.047 TIME LEFT:  2.00D  GRAD.:     5.175 HEAT: -152.8180
 CYCLE:    81 TIME:   0.023 TIME LEFT:  2.00D  GRAD.:     4.196 HEAT: -152.8333
 CYCLE:    82 TIME:   0.031 TIME LEFT:  2.00D  GRAD.:     3.481 HEAT: -152.8460
 CYCLE:    83 TIME:   0.047 TIME LEFT:  2.00D  GRAD.:     4.666 HEAT: -152.8593
 CYCLE:    84 TIME:   0.023 TIME LEFT:  2.00D  GRAD.:     3.315 HEAT: -152.8782
 CYCLE:    85 TIME:   0.023 TIME LEFT:  2.00D  GRAD.:     5.009 HEAT: -152.8914
 CYCLE:    86 TIME:   0.031 TIME LEFT:  2.00D  GRAD.:     2.866 HEAT: -152.9073
 CYCLE:    87 TIME:   0.023 TIME LEFT:  2.00D  GRAD.:     3.718 HEAT: -152.9189
 CYCLE:    88 TIME:   0.023 TIME LEFT:  2.00D  GRAD.:     3.249 HEAT: -152.9308
 CYCLE:    89 TIME:   0.023 TIME LEFT:  2.00D  GRAD.:     3.058 HEAT: -152.9442
 CYCLE:    90 TIME:   0.031 TIME LEFT:  2.00D  GRAD.:     3.298 HEAT: -152.9552
 CYCLE:    91 TIME:   0.023 TIME LEFT:  2.00D  GRAD.:     2.289 HEAT: -152.9628
 CYCLE:    92 TIME:   0.023 TIME LEFT:  2.00D  GRAD.:     1.895 HEAT: -152.9685
 CYCLE:    93 TIME:   0.023 TIME LEFT:  2.00D  GRAD.:     2.493 HEAT: -152.9770
 CYCLE:    94 TIME:   0.031 TIME LEFT:  2.00D  GRAD.:     2.086 HEAT: -152.9853
 CYCLE:    95 TIME:   0.023 TIME LEFT:  2.00D  GRAD.:     2.655 HEAT: -153.0051
 CYCLE:    96 TIME:   0.023 TIME LEFT:  2.00D  GRAD.:     3.161 HEAT: -153.0264
 CYCLE:    97 TIME:   0.031 TIME LEFT:  2.00D  GRAD.:     4.655 HEAT: -153.0492
 CYCLE:    98 TIME:   0.047 TIME LEFT:  2.00D  GRAD.:     6.763 HEAT: -153.0493
 CYCLE:    99 TIME:   0.023 TIME LEFT:  2.00D  GRAD.:     3.383 HEAT: -153.0807
 CYCLE:   100 TIME:   0.023 TIME LEFT:  2.00D  GRAD.:     2.747 HEAT: -153.0902
 CYCLE:   101 TIME:   0.031 TIME LEFT:  2.00D  GRAD.:     1.820 HEAT: -153.0993
 CYCLE:   102 TIME:   0.023 TIME LEFT:  2.00D  GRAD.:     3.961 HEAT: -153.1140
 CYCLE:   103 TIME:   0.023 TIME LEFT:  2.00D  GRAD.:     3.041 HEAT: -153.1246
 CYCLE:   104 TIME:   0.023 TIME LEFT:  2.00D  GRAD.:     2.241 HEAT: -153.1381
 CYCLE:   105 TIME:   0.031 TIME LEFT:  2.00D  GRAD.:     3.287 HEAT: -153.1520
 CYCLE:   106 TIME:   0.023 TIME LEFT:  2.00D  GRAD.:     2.484 HEAT: -153.1617
 CYCLE:   107 TIME:   0.023 TIME LEFT:  2.00D  GRAD.:     3.793 HEAT: -153.1740
 CYCLE:   108 TIME:   0.031 TIME LEFT:  2.00D  GRAD.:     2.761 HEAT: -153.1871
 CYCLE:   109 TIME:   0.023 TIME LEFT:  2.00D  GRAD.:     3.650 HEAT: -153.2061
 CYCLE:   110 TIME:   0.023 TIME LEFT:  2.00D  GRAD.:     3.291 HEAT: -153.2259
 CYCLE:   111 TIME:   0.031 TIME LEFT:  2.00D  GRAD.:     3.941 HEAT: -153.2496
 CYCLE:   112 TIME:   0.023 TIME LEFT:  2.00D  GRAD.:     5.335 HEAT: -153.2548
 CYCLE:   113 TIME:   0.023 TIME LEFT:  2.00D  GRAD.:     5.069 HEAT: -153.2804
 CYCLE:   114 TIME:   0.031 TIME LEFT:  2.00D  GRAD.:     5.278 HEAT: -153.2862
 CYCLE:   115 TIME:   0.023 TIME LEFT:  2.00D  GRAD.:     2.397 HEAT: -153.3044
 CYCLE:   116 TIME:   0.023 TIME LEFT:  2.00D  GRAD.:     2.837 HEAT: -153.3142
 CYCLE:   117 TIME:   0.023 TIME LEFT:  2.00D  GRAD.:     2.101 HEAT: -153.3232
 CYCLE:   118 TIME:   0.031 TIME LEFT:  2.00D  GRAD.:     2.599 HEAT: -153.3341
 CYCLE:   119 TIME:   0.047 TIME LEFT:  2.00D  GRAD.:     4.536 HEAT: -153.3358
 CYCLE:   120 TIME:   0.023 TIME LEFT:  2.00D  GRAD.:     3.489 HEAT: -153.3445
 CYCLE:   121 TIME:   0.031 TIME LEFT:  2.00D  GRAD.:     2.075 HEAT: -153.3538
 CYCLE:   122 TIME:   0.023 TIME LEFT:  2.00D  GRAD.:     3.100 HEAT: -153.3668
 CYCLE:   123 TIME:   0.023 TIME LEFT:  2.00D  GRAD.:     4.649 HEAT: -153.3955
 CYCLE:   124 TIME:   0.031 TIME LEFT:  2.00D  GRAD.:     3.741 HEAT: -153.4314
 CYCLE:   125 TIME:   0.023 TIME LEFT:  2.00D  GRAD.:     3.958 HEAT: -153.4880
 CYCLE:   126 TIME:   0.023 TIME LEFT:  2.00D  GRAD.:    11.064 HEAT: -153.4953
 CYCLE:   127 TIME:   0.031 TIME LEFT:  2.00D  GRAD.:     8.211 HEAT: -153.5674
 CYCLE:   128 TIME:   0.023 TIME LEFT:  2.00D  GRAD.:     7.372 HEAT: -153.6014
 CYCLE:   129 TIME:   0.023 TIME LEFT:  2.00D  GRAD.:     7.465 HEAT: -153.6813
 CYCLE:   130 TIME:   0.031 TIME LEFT:  2.00D  GRAD.:     5.579 HEAT: -153.7256
 CYCLE:   131 TIME:   0.023 TIME LEFT:  2.00D  GRAD.:     7.630 HEAT: -153.7990
 CYCLE:   132 TIME:   0.023 TIME LEFT:  2.00D  GRAD.:     8.050 HEAT: -153.8701
 CYCLE:   133 TIME:   0.070 TIME LEFT:  2.00D  GRAD.:     6.546 HEAT: -153.8996
 CYCLE:   134 TIME:   0.031 TIME LEFT:  2.00D  GRAD.:     4.759 HEAT: -153.9343
 CYCLE:   135 TIME:   0.023 TIME LEFT:  2.00D  GRAD.:     6.039 HEAT: -153.9615
 CYCLE:   136 TIME:   0.023 TIME LEFT:  2.00D  GRAD.:     5.601 HEAT: -153.9865
 CYCLE:   137 TIME:   0.031 TIME LEFT:  2.00D  GRAD.:     3.825 HEAT: -154.0104
 CYCLE:   138 TIME:   0.023 TIME LEFT:  2.00D  GRAD.:     4.020 HEAT: -154.0323
 CYCLE:   139 TIME:   0.023 TIME LEFT:  2.00D  GRAD.:     3.848 HEAT: -154.0615
 CYCLE:   140 TIME:   0.031 TIME LEFT:  2.00D  GRAD.:     5.064 HEAT: -154.0840
 CYCLE:   141 TIME:   0.023 TIME LEFT:  2.00D  GRAD.:     3.732 HEAT: -154.1033
 CYCLE:   142 TIME:   0.031 TIME LEFT:  2.00D  GRAD.:     4.589 HEAT: -154.1212
 CYCLE:   143 TIME:   0.023 TIME LEFT:  2.00D  GRAD.:     3.827 HEAT: -154.1454
 CYCLE:   144 TIME:   0.023 TIME LEFT:  2.00D  GRAD.:     4.915 HEAT: -154.1600
 CYCLE:   145 TIME:   0.031 TIME LEFT:  2.00D  GRAD.:     3.161 HEAT: -154.1720
 CYCLE:   146 TIME:   0.023 TIME LEFT:  2.00D  GRAD.:     2.983 HEAT: -154.1815
 CYCLE:   147 TIME:   0.031 TIME LEFT:  2.00D  GRAD.:     3.774 HEAT: -154.1963
 CYCLE:   148 TIME:   0.031 TIME LEFT:  2.00D  GRAD.:     3.290 HEAT: -154.2067
 CYCLE:   149 TIME:   0.023 TIME LEFT:  2.00D  GRAD.:     3.645 HEAT: -154.2328
 CYCLE:   150 TIME:   0.039 TIME LEFT:  2.00D  GRAD.:     5.155 HEAT: -154.2514
 CYCLE:   151 TIME:   0.055 TIME LEFT:  2.00D  GRAD.:     7.745 HEAT: -154.2517
 CYCLE:   152 TIME:   0.031 TIME LEFT:  2.00D  GRAD.:     3.873 HEAT: -154.3071
 CYCLE:   153 TIME:   0.055 TIME LEFT:  2.00D  GRAD.:     4.657 HEAT: -154.3333
 CYCLE:   154 TIME:   0.039 TIME LEFT:  2.00D  GRAD.:     4.330 HEAT: -154.3694
 CYCLE:   155 TIME:   0.047 TIME LEFT:  2.00D  GRAD.:     6.733 HEAT: -154.4249
 CYCLE:   156 TIME:   0.086 TIME LEFT:  2.00D  GRAD.:    10.846 HEAT: -154.4303
 CYCLE:   157 TIME:   0.031 TIME LEFT:  2.00D  GRAD.:     3.815 HEAT: -154.5185
 CYCLE:   158 TIME:   0.023 TIME LEFT:  2.00D  GRAD.:     8.124 HEAT: -154.5479
 CYCLE:   159 TIME:   0.023 TIME LEFT:  2.00D  GRAD.:     6.404 HEAT: -154.6216
 CYCLE:   160 TIME:   0.031 TIME LEFT:  2.00D  GRAD.:     7.620 HEAT: -154.7779
 CYCLE:   161 TIME:   0.023 TIME LEFT:  2.00D  GRAD.:    12.639 HEAT: -154.9673
 CYCLE:   162 TIME:   0.031 TIME LEFT:  2.00D  GRAD.:    24.092 HEAT: -155.0078
 CYCLE:   163 TIME:   0.023 TIME LEFT:  2.00D  GRAD.:    11.715 HEAT: -155.4977
 CYCLE:   164 TIME:   0.055 TIME LEFT:  2.00D  GRAD.:    21.925 HEAT: -155.6743
 CYCLE:   165 TIME:   0.023 TIME LEFT:  2.00D  GRAD.:    17.237 HEAT: -156.0416
 CYCLE:   166 TIME:   0.031 TIME LEFT:  2.00D  GRAD.:    21.770 HEAT: -156.2144
 CYCLE:   167 TIME:   0.023 TIME LEFT:  2.00D  GRAD.:    24.728 HEAT: -156.3013
 CYCLE:   168 TIME:   0.055 TIME LEFT:  2.00D  GRAD.:    26.132 HEAT: -156.3157
 CYCLE:   169 TIME:   0.023 TIME LEFT:  2.00D  GRAD.:    11.356 HEAT: -156.5523
 CYCLE:   170 TIME:   0.031 TIME LEFT:  2.00D  GRAD.:    17.192 HEAT: -156.6013
 CYCLE:   171 TIME:   0.023 TIME LEFT:  2.00D  GRAD.:     6.850 HEAT: -156.7340
 CYCLE:   172 TIME:   0.023 TIME LEFT:  2.00D  GRAD.:    10.492 HEAT: -156.7353
 CYCLE:   173 TIME:   0.023 TIME LEFT:  2.00D  GRAD.:     7.724 HEAT: -156.7924
 CYCLE:   174 TIME:   0.031 TIME LEFT:  2.00D  GRAD.:     6.592 HEAT: -156.8159
 CYCLE:   175 TIME:   0.023 TIME LEFT:  2.00D  GRAD.:     4.145 HEAT: -156.8538
 CYCLE:   176 TIME:   0.023 TIME LEFT:  2.00D  GRAD.:     4.811 HEAT: -156.8742
 CYCLE:   177 TIME:   0.023 TIME LEFT:  2.00D  GRAD.:     6.066 HEAT: -156.9058
 CYCLE:   178 TIME:   0.031 TIME LEFT:  2.00D  GRAD.:     7.994 HEAT: -156.9678
 CYCLE:   179 TIME:   0.023 TIME LEFT:  2.00D  GRAD.:     7.662 HEAT: -157.0569
 CYCLE:   180 TIME:   0.023 TIME LEFT:  2.00D  GRAD.:     8.620 HEAT: -157.1713
 CYCLE:   181 TIME:   0.031 TIME LEFT:  2.00D  GRAD.:     9.226 HEAT: -157.3055
 CYCLE:   182 TIME:   0.023 TIME LEFT:  2.00D  GRAD.:     6.758 HEAT: -157.4045
 CYCLE:   183 TIME:   0.023 TIME LEFT:  2.00D  GRAD.:     7.998 HEAT: -157.4472
 CYCLE:   184 TIME:   0.031 TIME LEFT:  2.00D  GRAD.:     7.464 HEAT: -157.4854
 CYCLE:   185 TIME:   0.023 TIME LEFT:  2.00D  GRAD.:     4.875 HEAT: -157.5225
 CYCLE:   186 TIME:   0.023 TIME LEFT:  2.00D  GRAD.:     3.220 HEAT: -157.5506
 CYCLE:   187 TIME:   0.031 TIME LEFT:  2.00D  GRAD.:     4.114 HEAT: -157.5841
 CYCLE:   188 TIME:   0.023 TIME LEFT:  2.00D  GRAD.:     3.640 HEAT: -157.6048
 CYCLE:   189 TIME:   0.023 TIME LEFT:  2.00D  GRAD.:     3.101 HEAT: -157.6174
 CYCLE:   190 TIME:   0.023 TIME LEFT:  2.00D  GRAD.:     2.333 HEAT: -157.6260
 CYCLE:   191 TIME:   0.031 TIME LEFT:  2.00D  GRAD.:     2.402 HEAT: -157.6350
 CYCLE:   192 TIME:   0.023 TIME LEFT:  2.00D  GRAD.:     2.758 HEAT: -157.6439
 CYCLE:   193 TIME:   0.023 TIME LEFT:  2.00D  GRAD.:     3.245 HEAT: -157.6552
 CYCLE:   194 TIME:   0.031 TIME LEFT:  2.00D  GRAD.:     4.597 HEAT: -157.6765
 CYCLE:   195 TIME:   0.023 TIME LEFT:  2.00D  GRAD.:     5.711 HEAT: -157.7123
 CYCLE:   196 TIME:   0.023 TIME LEFT:  2.00D  GRAD.:     7.562 HEAT: -157.7737
 CYCLE:   197 TIME:   0.023 TIME LEFT:  2.00D  GRAD.:     9.530 HEAT: -157.8569
 CYCLE:   198 TIME:   0.055 TIME LEFT:  2.00D  GRAD.:    11.062 HEAT: -157.8780
 CYCLE:   199 TIME:   0.023 TIME LEFT:  2.00D  GRAD.:     3.224 HEAT: -157.9657
 CYCLE:   200 TIME:   0.031 TIME LEFT:  2.00D  GRAD.:     3.127 HEAT: -157.9869
 CYCLE:   201 TIME:   0.023 TIME LEFT:  2.00D  GRAD.:     3.489 HEAT: -158.0019
 CYCLE:   202 TIME:   0.031 TIME LEFT:  2.00D  GRAD.:     2.466 HEAT: -158.0200
 CYCLE:   203 TIME:   0.023 TIME LEFT:  2.00D  GRAD.:     2.506 HEAT: -158.0354
 CYCLE:   204 TIME:   0.031 TIME LEFT:  2.00D  GRAD.:     2.496 HEAT: -158.0544
 CYCLE:   205 TIME:   0.031 TIME LEFT:  2.00D  GRAD.:     2.719 HEAT: -158.0679
 CYCLE:   206 TIME:   0.023 TIME LEFT:  2.00D  GRAD.:     5.683 HEAT: -158.0725
 CYCLE:   207 TIME:   0.031 TIME LEFT:  2.00D  GRAD.:     4.684 HEAT: -158.0797
 CYCLE:   208 TIME:   0.023 TIME LEFT:  2.00D  GRAD.:     2.145 HEAT: -158.0955
 CYCLE:   209 TIME:   0.031 TIME LEFT:  2.00D  GRAD.:     2.303 HEAT: -158.1009
 CYCLE:   210 TIME:   0.023 TIME LEFT:  2.00D  GRAD.:     2.264 HEAT: -158.1081
 CYCLE:   211 TIME:   0.031 TIME LEFT:  2.00D  GRAD.:     1.771 HEAT: -158.1169
 CYCLE:   212 TIME:   0.023 TIME LEFT:  2.00D  GRAD.:     2.241 HEAT: -158.1233
 CYCLE:   213 TIME:   0.023 TIME LEFT:  2.00D  GRAD.:     3.468 HEAT: -158.1303
 CYCLE:   214 TIME:   0.031 TIME LEFT:  2.00D  GRAD.:     3.300 HEAT: -158.1396
 CYCLE:   215 TIME:   0.023 TIME LEFT:  2.00D  GRAD.:     5.169 HEAT: -158.1512
 CYCLE:   216 TIME:   0.023 TIME LEFT:  2.00D  GRAD.:     4.275 HEAT: -158.1536
 CYCLE:   217 TIME:   0.031 TIME LEFT:  2.00D  GRAD.:     5.626 HEAT: -158.1761
 CYCLE:   218 TIME:   0.023 TIME LEFT:  2.00D  GRAD.:     4.436 HEAT: -158.1981
 CYCLE:   219 TIME:   0.023 TIME LEFT:  2.00D  GRAD.:     4.490 HEAT: -158.2313
 CYCLE:   220 TIME:   0.023 TIME LEFT:  2.00D  GRAD.:     4.956 HEAT: -158.2605
 CYCLE:   221 TIME:   0.031 TIME LEFT:  2.00D  GRAD.:     4.410 HEAT: -158.2845
 CYCLE:   222 TIME:   0.023 TIME LEFT:  2.00D  GRAD.:     3.560 HEAT: -158.3049
 CYCLE:   223 TIME:   0.031 TIME LEFT:  2.00D  GRAD.:     3.529 HEAT: -158.3162
 CYCLE:   224 TIME:   0.023 TIME LEFT:  2.00D  GRAD.:     3.403 HEAT: -158.3334
 CYCLE:   225 TIME:   0.023 TIME LEFT:  2.00D  GRAD.:     3.090 HEAT: -158.3500
 CYCLE:   226 TIME:   0.031 TIME LEFT:  2.00D  GRAD.:     2.425 HEAT: -158.3656
 CYCLE:   227 TIME:   0.023 TIME LEFT:  2.00D  GRAD.:     2.268 HEAT: -158.3746
 CYCLE:   228 TIME:   0.023 TIME LEFT:  2.00D  GRAD.:     1.654 HEAT: -158.3807
 CYCLE:   229 TIME:   0.031 TIME LEFT:  2.00D  GRAD.:     1.324 HEAT: -158.3842
 CYCLE:   230 TIME:   0.023 TIME LEFT:  2.00D  GRAD.:     1.127 HEAT: -158.3860
 CYCLE:   231 TIME:   0.023 TIME LEFT:  2.00D  GRAD.:     0.920 HEAT: -158.3878

     GRADIENT =  0.91990 IS LESS THAN CUTOFF =  1.00000



 -------------------------------------------------------------------------------
 AUX LARGE CHARGE=0 SINGLET  PM6
 3 methanols



     GEOMETRY OPTIMISED USING EIGENVECTOR FOLLOWING (EF).     
     SCF FIELD WAS ACHIEVED                                   


                              PM6 CALCULATION
                                                       MOPAC v22.1.0 Windows
                                                       Tue Dec 12 20:15:20 2023




          FINAL HEAT OF FORMATION =       -158.38785 KCAL/MOL =    -662.69476 KJ/MOL


          COSMO AREA              =        156.86 SQUARE ANGSTROMS
          COSMO VOLUME            =        144.25 CUBIC ANGSTROMS

          GRADIENT NORM           =          0.91990          =       0.21682 PER ATOM
          IONIZATION POTENTIAL    =         10.422733 EV
          HOMO LUMO ENERGIES (EV) =        -10.423  2.098
          NO. OF FILLED LEVELS    =         21
          MOLECULAR WEIGHT        =         96.1260         POINT GROUP:  C1  

          MOLECULAR DIMENSIONS (Angstroms)

            Atom       Atom       Distance
            H    14    H    10     6.34909
            H     3    H    15     5.43306
            H     4    H     8     2.77055


          SCF CALCULATIONS        =        251
 
          WALL-CLOCK TIME         =      6.844 SECONDS
          COMPUTATION TIME        =     33.828 SECONDS




   ATOM   CHEMICAL          X               Y               Z
  NUMBER   SYMBOL      (ANGSTROMS)     (ANGSTROMS)     (ANGSTROMS)
 
     1       C         -2.21621784  *   1.25508266  *   3.50903150  *
     2       O         -1.51661884  *   1.31944641  *   2.25888138  *
     3       H         -3.25965339  *   1.06783687  *   3.22838049  *
     4       H         -2.12214546  *   2.20494597  *   4.04459351  *
     5       H         -1.83073066  *   0.42608099  *   4.11006320  *
     6       H         -0.50834333  *   1.40795137  *   2.43309237  *
     7       C         -1.18618871  *   3.94332836  *  -0.09918076  *
     8       H         -0.77349862  *   3.08018390  *  -0.63102372  *
     9       O         -1.15996052  *   3.71914514  *   1.31771232  *
    10       H         -2.21462327  *   4.14395706  *  -0.41678673  *
    11       H         -0.55974399  *   4.83054026  *  -0.24940717  *
    12       H         -1.66371612  *   2.85075410  *   1.54004719  *
    13       C          1.41206105  *   2.88244867  *   3.53297531  *
    14       H          1.74581880  *   1.97257500  *   4.04537435  *
    15       H          2.26763189  *   3.53250444  *   3.31735480  *
    16       H          0.66081004  *   3.41352750  *   4.12428690  *
    17       O          0.85370094  *   2.41923014  *   2.29762242  *
    18       H          0.36889661  *   3.19097071  *   1.82487207  *

                             CARTESIAN COORDINATES

   1    C       -2.216217842     1.255082657     3.509031497
   2    O       -1.516618842     1.319446406     2.258881378
   3    H       -3.259653385     1.067836874     3.228380488
   4    H       -2.122145459     2.204945970     4.044593511
   5    H       -1.830730664     0.426080993     4.110063202
   6    H       -0.508343327     1.407951365     2.433092374
   7    C       -1.186188705     3.943328358    -0.099180762
   8    H       -0.773498619     3.080183898    -0.631023724
   9    O       -1.159960525     3.719145142     1.317712323
  10    H       -2.214623273     4.143957057    -0.416786729
  11    H       -0.559743987     4.830540258    -0.249407171
  12    H       -1.663716117     2.850754102     1.540047194
  13    C        1.412061053     2.882448673     3.532975306
  14    H        1.745818799     1.972575000     4.045374349
  15    H        2.267631891     3.532504445     3.317354803
  16    H        0.660810043     3.413527497     4.124286901
  17    O        0.853700936     2.419230143     2.297622419
  18    H        0.368896610     3.190970708     1.824872075


           Empirical Formula: C3 H12 O3  =    18 atoms



      MOLECULAR POINT GROUP   :   C1  


                  EIGENVALUES  
 -30.12314 -28.97162 -28.95011 -24.69957 -24.31705 -24.27787 -18.22352 -17.88058
 -17.82669 -15.40600 -15.29597 -15.25649 -15.03978 -14.97344 -14.95807 -12.65416
 -12.62368 -12.25335 -10.60225 -10.43805 -10.42273   2.09847   2.91657   2.92031
   5.12227   5.20676   5.24046   5.32570   5.35472   5.40802   5.67019   5.79256
   5.80265   5.93716   6.17950   6.18802


              NET ATOMIC CHARGES AND DIPOLE CONTRIBUTIONS

  ATOM NO.   TYPE          CHARGE      No. of ELECS.   s-Pop       p-Pop       
    1          C          -0.173998        4.1740     1.09268     3.08132
    2          O          -0.578775        6.5788     1.83230     4.74648
    3          H           0.149908        0.8501     0.85009
    4          H           0.124699        0.8753     0.87530
    5          H           0.127934        0.8721     0.87207
    6          H           0.352903        0.6471     0.64710
    7          C          -0.171858        4.1719     1.09330     3.07855
    8          H           0.129465        0.8705     0.87054
    9          O          -0.587733        6.5877     1.83203     4.75570
   10          H           0.129688        0.8703     0.87031
   11          H           0.146912        0.8531     0.85309
   12          H           0.353594        0.6464     0.64641
   13          C          -0.170935        4.1709     1.09240     3.07853
   14          H           0.146022        0.8540     0.85398
   15          H           0.130926        0.8691     0.86907
   16          H           0.123573        0.8764     0.87643
   17          O          -0.585393        6.5854     1.83038     4.75502
   18          H           0.353070        0.6469     0.64693
 DIPOLE           X         Y         Z       TOTAL
 POINT-CHG.    -0.255     0.887     1.439     1.710
 HYBRID         0.022    -0.064    -0.125     0.142
 SUM           -0.233     0.824     1.315     1.569


          ATOMIC ORBITAL ELECTRON POPULATIONS

     Atom    s        px        py        pz   
    1  C   1.09268   1.06041   1.13021   0.89070
    2  O   1.83230   1.40744   1.94405   1.39498
    3  H   0.85009
    4  H   0.87530
    5  H   0.87207
    6  H   0.64710
    7  C   1.09330   1.14263   1.13187   0.80406
    8  H   0.87054
    9  O   1.83203   1.82282   1.60888   1.32400
   10  H   0.87031
   11  H   0.85309
   12  H   0.64641
   13  C   1.09240   1.08000   1.11776   0.88078
   14  H   0.85398
   15  H   0.86907
   16  H   0.87643
   17  O   1.83038   1.77792   1.54389   1.43321
   18  H   0.64693

 **********************
 *                    *
 * JOB ENDED NORMALLY *
 *                    *
 **********************



 TOTAL JOB TIME:             6.85 SECONDS

 == MOPAC DONE ==
