

 Parallel Execution: Process Information
 ==============================================================================
 Rank   Node Name                              NodeID   MyNodeRank  NodeMaster
    0   adf1                                      0          0          0
    1   adf1                                      0          1         -1
    2   adf1                                      0          2         -1
    3   adf1                                      0          3         -1
    4   adf1                                      0          4         -1
    5   adf1                                      0          5         -1
    6   adf1                                      1          0          1
    7   adf1                                      1          1         -1
    8   adf1                                      1          2         -1
    9   adf1                                      1          3         -1
   10   adf1                                      1          4         -1
   11   adf1                                      1          5         -1
 ==============================================================================


May use up to 11697MB of RAM as shared memory on node 0
May use up to 11718MB of RAM as shared memory on node 1

 *******************************************************************************
 *                                                                             *
 *  --------------------------------                                           *
 *   Amsterdam Modeling Suite (AMS)              2021.105                      *
 *  --------------------------------                                           *
 *                                               r97261 2021-09-16             *
 *                                                                             *
 *                                                                             *
 *                              =================                              *
 *                              |               |                              *
 *                              |     A M S     |                              *
 *                              |               |                              *
 *                              =================                              *
 *                                                                             *
 *                                                                             *
 *   Online information and documentation:  https://www.scm.com/support/       *
 *   E-mail:  support@scm.com   info@scm.com                                   *
 *                                                                             *
 *   Scientific publications using AMS results must be properly referenced     *
 *   See the User Manuals (or the web site) for recommended citations          *
 *   The terms and conditions of the End User License Agreement apply to       *
 *   the use of AMS, https://www.scm.com/license-terms/                        *
 *                                                                             *
 **********************  x86_64_linux_intel / intelmpi  ************************
 
 Licensed to: Dr. Miroslav Ilias / Matej Bel University, Department Chemistry, Fac. Natural Sciences / Banska Bystrica / SLOVAKIA
 SCM User ID: u17848
  
 AMS 2021.105  RunTime: Feb08-2022 10:15:38  ShM Nodes: 2  Procs: 12

 AMS jobname: ams
 AMS jobid  : 306181927

 Start   directory: /home/milias/Work/projects/open-collection/theoretical_chemistry/projects/fluorescence/MA_compoud/adf/tmp.milias.18415.0.noindex/
 Results directory: /home/milias/Work/projects/open-collection/theoretical_chemistry/projects/fluorescence/MA_compoud/adf/MA.geopt_freq_camb3lyp_scalar_tzp_cosmo-water.results/
 Scratch directory: /tmp/amstmp_ams_kid0.306181927/


 Communication costs MPI_COMM_WORLD:      2.934 usec per message,   0.0481 usec per 8-byte item
 Communication costs for intra-node:      1.631 usec per message,   0.0130 usec per 8-byte item

 RNG seed: 1755378119 -2048958964 -1320885243 979425877 -1311304846 790868135 1217642793 1016151282



                     *************************************************************************
                     *  ADF 2021.105  RunTime: Feb08-2022 10:15:38  ShM Nodes: 2  Procs: 12  *
                     *************************************************************************
  
       ***************************
       *  GEOMETRY OPTIMIZATION  *
       ***************************

Optimization Method                    Quasi Newton
Optimization Coordinates               Delocalized Coordinates
Optimize lattice                       F
 
 ------------------------------------------------------
 Convergence criteria (Hartree,Angstrom)
 ------------------------------------------------------
 Maximum gradient               0.001000000000
 Maximum rms gradient           0.000666666667
 Maximum step allowed           0.010000000000
 Maximum rms step allowed       0.006666666667
 Maximum energy change allowe   0.000150000000
 Maximum stress energy allowe   0.000500000000
 
Initial model Hessian                  Automatic Hessian
 
------------------------------------
Quasi-Newton Optimizer Parameters
------------------------------------
Hessian Update Method                  BFGS
Maximum number of steps                  250
First GDIIS cycle                          0
Maximum GDIIS vectors                      0
Trust radius (bohr)                        0.200000
Trust radius varies                        T
Constraints converged at all steps         T
Use projector                              T
 
 Rigid motions settings for: old optimizer
 Atomic rotations (x,y,z):     T T T
 Atomic translations (x,y,z):  T T T
 Tolerance:                   1.000000000000000E-006
 
--------
Geometry
--------
Formula: C5H6O4
Atoms
  Index Symbol   x (angstrom)   y (angstrom)   z (angstrom)
      1      O    -2.94600000     0.37740000    -0.37690000       adf.R=1.517
      2      O     1.15680000     1.65690000    -0.33260000       adf.R=1.517
      3      O    -1.54450000     0.02450000     1.38000000       adf.R=1.517
      4      O     2.70390000     0.21030000     0.48420000       adf.R=1.517
      5      C    -0.74240000    -0.23950000    -0.91600000       adf.R=1.700
      6      C     0.59350000    -0.61500000    -0.33820000       adf.R=1.700
      7      C    -1.74830000     0.05110000     0.17550000       adf.R=1.700
      8      C     1.60670000     0.42200000    -0.00940000       adf.R=1.700
      9      C     0.92010000    -1.88780000    -0.06640000       adf.R=1.700
     10      H    -0.66170000     0.62870000    -1.57790000       adf.R=1.350
     11      H    -1.13380000    -1.07060000    -1.51620000       adf.R=1.350
     12      H     0.22210000    -2.69440000    -0.26840000       adf.R=1.350
     13      H     1.87660000    -2.17000000     0.36070000       adf.R=1.350
     14      H    -3.61990000     0.58110000     0.30610000       adf.R=1.350
     15      H     1.81420000     2.35410000    -0.12270000       adf.R=1.350
 
Total System Charge             0.00000
Bonding info available!
 
 
----------------
ADF Engine Input
----------------
 
 Basis
 Type TZP
 Core None
 End
 XC
 libxc CAM-B3LYP
 End
 Solvation
 Surf Delley
 Solv name=Water cav0=0.0 cav1=0.0067639
 Charged method=CONJ
 C-Mat POT
 SCF VAR ALL
 CSMRSP
 End
 

 Title: *** (NO TITLE) ***

 Using automatic Hessian for delocalized coordinates.
 *** GOStep1 ***
 Range separated functional parameters:
 RANGESEP OMEGA=    0.330000 ALPHA=    0.190000 BETA=    0.460000 ERF-LONGRANGE 
                                                                                
   

 SOLVATION
-------------------------------------------

  The Delley construction of COSMO surface surface is calculated

       Division Level for Surface Triangles (NDIV)                  3
       Final Division Level for Triangles (NFDIV)                   1
       Radius of the Solvent (RSOL)                           1.93000 angstr
  Dielectric Constant (EPSL)                                 78.39000

       COSMO equation is solved iteratively-               conjugate-gradient

       Maximun of Iterations for Charges (NCIX)                  1000
       Criterion for Charge convergence (CCNV)                1.0E-08

  COSMO charges included variationally in SCF

       COSMO included at every SCF cycle

  Geometry-dependent empirical factor                         0.00000

  C-Matrix calculated in cspmtx

  In cspmtx, C-Matrix calculated using fitted potential

-------------------------------------------



 -------------------------------------------
  COSMO surface
  Area             =          528.173
  Volume           =          873.943
  Number of Points =         1478
 -------------------------------------------



 ======================
 RI Hartree-Fock Scheme
 ======================
  
 Fit Set Quality     : NORMAL
 Integration Quality : NORMAL
 Threshold Quality   : NORMAL
 Response Quality    : DEFAULT
 Is Range Separated  :  T
 Type of Range Separation : 
 Long-Range: Erf potential                                                      
                                                                                
   
 Asymptotic Coulomb       :   0.650000000000000     
 
 RIHartreeFock Dependency: number of modified vectors:           6
 cosmo_calcen: 0.5 (esolb+esolc) (Hartrees) =   -0.028874

 Solvation energy (screening term,uncorrected) =    -18.118797 kcal/mol

 Solvation energy (dispersion and cavitation terms) =      0.987643 kcal/mol
 Solvation Energy Contributions (Hartrees)
          esola   esolb+esolc
     0.02887414   -0.05774828
 esol last cycle   -0.02887414
  
 Hartree-Fock exchange energy:   -16.9407042077446     
 cosmo_calcen: 0.5 (esolb+esolc) (Hartrees) =   -0.028874

 Solvation energy (screening term,uncorrected) =    -18.118798 kcal/mol

 Solvation energy (dispersion and cavitation terms) =      0.987643 kcal/mol
 Solvation Energy Contributions (Hartrees)
          esola   esolb+esolc
     0.02887414   -0.05774828
 esol last cycle   -0.02887414

 Energy gradients wrt nuclear displacements
 ==========================================

     Atom      Cartesian (a.u./angstrom)
                 X         Y         Z
 ----------------------------------------
     1 O    -0.013053  0.004706 -0.017790
     2 O    -0.014920  0.003509 -0.007481
     3 O     0.011433 -0.000201  0.050446
     4 O     0.030307 -0.011888  0.014350
     5 C    -0.008099  0.006644 -0.008056
     6 C    -0.021301  0.042427 -0.009950
     7 C     0.023819 -0.018477 -0.019891
     8 C    -0.010513 -0.018454 -0.002463
     9 C     0.010697 -0.018665  0.008912
    10 H     0.006230  0.006051 -0.007236
    11 H    -0.001995 -0.008535 -0.005959
    12 H    -0.002220 -0.004598  0.000877
    13 H     0.004233 -0.008182  0.001861
    14 H    -0.018508  0.005588  0.003046
    15 H     0.003891  0.020074 -0.000665
 ----------------------------------------
 Mulliken charges used for AMS results%charges...
 
----------------------------------------------------------------------
Geometry Convergence after Step   1       (Hartree/Angstrom,Angstrom)
----------------------------------------------------------------------
current energy                               -5.03399106 Hartree
energy change                      -5.03399106     0.00015000    F
constrained gradient max            0.05042082     0.00100000    F
constrained gradient rms            0.01544120     0.00066667    F
gradient max                        0.05042082
gradient rms                        0.01544120
cart. step max                      0.08110398     0.01000000    F
cart. step rms                      0.02930233     0.00666667    F
 
 
--------
Geometry
--------
Formula: C5H6O4
Atoms
  Index Symbol   x (angstrom)   y (angstrom)   z (angstrom)
      1      O    -2.94837549     0.38866866    -0.38996078       adf.R=1.517
      2      O     1.13436550     1.65215721    -0.29344256       adf.R=1.517
      3      O    -1.58007440     0.10560398     1.34425094       adf.R=1.517
      4      O     2.68682699     0.23763724     0.44637978       adf.R=1.517
      5      C    -0.74344493    -0.26564751    -0.89331709       adf.R=1.700
      6      C     0.59892331    -0.63909751    -0.33112262       adf.R=1.700
      7      C    -1.76099413     0.09708363     0.15971306       adf.R=1.700
      8      C     1.59002056     0.42241466    -0.01863704       adf.R=1.700
      9      C     0.94081437    -1.89479365    -0.08333984       adf.R=1.700
     10      H    -0.66928962     0.57880203    -1.57757376       adf.R=1.350
     11      H    -1.14960765    -1.10212028    -1.46505459       adf.R=1.350
     12      H     0.26378809    -2.71027512    -0.30628493       adf.R=1.350
     13      H     1.90351350    -2.14962297     0.33784843       adf.R=1.350
     14      H    -3.58453861     0.60147014     0.31438373       adf.R=1.350
     15      H     1.81537250     2.30651948    -0.06204274       adf.R=1.350
 
Total System Charge             0.00000
Bonding info available!
 
 *** GOStep2 ***
 Range separated functional parameters:
 RANGESEP OMEGA=    0.330000 ALPHA=    0.190000 BETA=    0.460000 ERF-LONGRANGE 
                                                                                
   

 SOLVATION
-------------------------------------------

  The Delley construction of COSMO surface surface is calculated

       Division Level for Surface Triangles (NDIV)                  3
       Final Division Level for Triangles (NFDIV)                   1
       Radius of the Solvent (RSOL)                           1.93000 angstr
  Dielectric Constant (EPSL)                                 78.39000

       COSMO equation is solved iteratively-               conjugate-gradient

       Maximun of Iterations for Charges (NCIX)                  1000
       Criterion for Charge convergence (CCNV)                1.0E-08

  COSMO charges included variationally in SCF

       COSMO included at every SCF cycle

  Geometry-dependent empirical factor                         0.00000

  C-Matrix calculated in cspmtx

  In cspmtx, C-Matrix calculated using fitted potential

-------------------------------------------



 -------------------------------------------
  COSMO surface
  Area             =          525.370
  Volume           =          867.630
  Number of Points =         1475
 -------------------------------------------



 ======================
 RI Hartree-Fock Scheme
 ======================
  
 Fit Set Quality     : NORMAL
 Integration Quality : NORMAL
 Threshold Quality   : NORMAL
 Response Quality    : DEFAULT
 Is Range Separated  :  T
 Type of Range Separation : 
 Long-Range: Erf potential                                                      
                                                                                
   
 Asymptotic Coulomb       :   0.650000000000000     
 
 RIHartreeFock Dependency: number of modified vectors:           6
 cosmo_calcen: 0.5 (esolb+esolc) (Hartrees) =   -0.027599

 Solvation energy (screening term,uncorrected) =    -17.318541 kcal/mol

 Solvation energy (dispersion and cavitation terms) =      0.982401 kcal/mol
 Solvation Energy Contributions (Hartrees)
          esola   esolb+esolc
     0.02759885   -0.05519770
 esol last cycle   -0.02759885
  
 Hartree-Fock exchange energy:   -16.9616122040542     
 cosmo_calcen: 0.5 (esolb+esolc) (Hartrees) =   -0.027599

 Solvation energy (screening term,uncorrected) =    -17.318539 kcal/mol

 Solvation energy (dispersion and cavitation terms) =      0.982401 kcal/mol
 Solvation Energy Contributions (Hartrees)
          esola   esolb+esolc
     0.02759885   -0.05519769
 esol last cycle   -0.02759885

 Energy gradients wrt nuclear displacements
 ==========================================

     Atom      Cartesian (a.u./angstrom)
                 X         Y         Z
 ----------------------------------------
     1 O    -0.000514 -0.001662  0.005918
     2 O     0.005965 -0.001413  0.003209
     3 O    -0.007319 -0.002247 -0.027930
     4 O    -0.017814  0.005175 -0.005813
     5 C    -0.002873 -0.000027  0.001012
     6 C     0.000880  0.002732 -0.001832
     7 C     0.008837  0.004309  0.025661
     8 C     0.015943 -0.010605  0.000707
     9 C     0.001024  0.005619  0.003422
    10 H     0.001065  0.001693  0.000823
    11 H     0.000347 -0.002938 -0.001921
    12 H    -0.000348 -0.001870 -0.001375
    13 H     0.000200 -0.003118  0.001008
    14 H    -0.003199  0.000529 -0.001916
    15 H    -0.002193  0.003823 -0.000974
 ----------------------------------------
 Mulliken charges used for AMS results%charges...

 dE(predicted):    -0.37689E-02, dE(actual):    -0.32659E-02, Trust radius:    0.400000, all in a.u.
 
----------------------------------------------------------------------
Geometry Convergence after Step   2       (Hartree/Angstrom,Angstrom)
----------------------------------------------------------------------
current energy                               -5.03725694 Hartree
energy change                      -0.00326588     0.00015000    F
constrained gradient max            0.02795087     0.00100000    F
constrained gradient rms            0.00753948     0.00066667    F
gradient max                        0.02795087
gradient rms                        0.00753948
cart. step max                      0.13086151     0.01000000    F
cart. step rms                      0.04493200     0.00666667    F
 
 
--------
Geometry
--------
Formula: C5H6O4
Atoms
  Index Symbol   x (angstrom)   y (angstrom)   z (angstrom)
      1      O    -2.92232652     0.43995038    -0.40453934       adf.R=1.517
      2      O     1.05129576     1.63848565    -0.23869703       adf.R=1.517
      3      O    -1.54863877     0.19811202     1.33714922       adf.R=1.517
      4      O     2.66558918     0.26217161     0.44337196       adf.R=1.517
      5      C    -0.75022188    -0.31507488    -0.88764902       adf.R=1.700
      6      C     0.59549065    -0.66937258    -0.32498814       adf.R=1.700
      7      C    -1.75734029     0.09823903     0.15347141       adf.R=1.700
      8      C     1.54184552     0.42246207     0.02228320       adf.R=1.700
      9      C     0.97897673    -1.91716285    -0.12098210       adf.R=1.700
     10      H    -0.68495521     0.50332002    -1.60139297       adf.R=1.350
     11      H    -1.16718182    -1.16488271    -1.42555903       adf.R=1.350
     12      H     0.32185272    -2.74712391    -0.34270257       adf.R=1.350
     13      H     1.95639185    -2.14123421     0.27965583       adf.R=1.350
     14      H    -3.51816611     0.73233165     0.30369260       adf.R=1.350
     15      H     1.73468820     2.28857871    -0.01131401       adf.R=1.350
 
Total System Charge             0.00000
Bonding info available!
 
 *** GOStep3 ***
 Range separated functional parameters:
 RANGESEP OMEGA=    0.330000 ALPHA=    0.190000 BETA=    0.460000 ERF-LONGRANGE 
                                                                                
   

 SOLVATION
-------------------------------------------

  The Delley construction of COSMO surface surface is calculated

       Division Level for Surface Triangles (NDIV)                  3
       Final Division Level for Triangles (NFDIV)                   1
       Radius of the Solvent (RSOL)                           1.93000 angstr
  Dielectric Constant (EPSL)                                 78.39000

       COSMO equation is solved iteratively-               conjugate-gradient

       Maximun of Iterations for Charges (NCIX)                  1000
       Criterion for Charge convergence (CCNV)                1.0E-08

  COSMO charges included variationally in SCF

       COSMO included at every SCF cycle

  Geometry-dependent empirical factor                         0.00000

  C-Matrix calculated in cspmtx

  In cspmtx, C-Matrix calculated using fitted potential

-------------------------------------------



 -------------------------------------------
  COSMO surface
  Area             =          526.111
  Volume           =          868.998
  Number of Points =         1463
 -------------------------------------------



 ======================
 RI Hartree-Fock Scheme
 ======================
  
 Fit Set Quality     : NORMAL
 Integration Quality : NORMAL
 Threshold Quality   : NORMAL
 Response Quality    : DEFAULT
 Is Range Separated  :  T
 Type of Range Separation : 
 Long-Range: Erf potential                                                      
                                                                                
   
 Asymptotic Coulomb       :   0.650000000000000     
 
 RIHartreeFock Dependency: number of modified vectors:           6
 cosmo_calcen: 0.5 (esolb+esolc) (Hartrees) =   -0.027772

 Solvation energy (screening term,uncorrected) =    -17.427377 kcal/mol

 Solvation energy (dispersion and cavitation terms) =      0.983786 kcal/mol
 Solvation Energy Contributions (Hartrees)
          esola   esolb+esolc
     0.02777229   -0.05554458
 esol last cycle   -0.02777229
  
 Hartree-Fock exchange energy:   -16.9620626489574     
 cosmo_calcen: 0.5 (esolb+esolc) (Hartrees) =   -0.027772

 Solvation energy (screening term,uncorrected) =    -17.427377 kcal/mol

 Solvation energy (dispersion and cavitation terms) =      0.983786 kcal/mol
 Solvation Energy Contributions (Hartrees)
          esola   esolb+esolc
     0.02777229   -0.05554458
 esol last cycle   -0.02777229

 Energy gradients wrt nuclear displacements
 ==========================================

     Atom      Cartesian (a.u./angstrom)
                 X         Y         Z
 ----------------------------------------
     1 O     0.002365  0.005545  0.002010
     2 O     0.005582  0.000501 -0.002145
     3 O     0.000648  0.006502 -0.008363
     4 O    -0.003400  0.001519 -0.007211
     5 C     0.002106  0.007246 -0.003380
     6 C     0.006397 -0.006545 -0.003120
     7 C    -0.009473 -0.018399  0.009640
     8 C    -0.001952  0.000452  0.013936
     9 C    -0.001228  0.008006 -0.000916
    10 H    -0.000238 -0.000319  0.001715
    11 H    -0.000240  0.000836  0.000579
    12 H    -0.000847 -0.000298  0.001828
    13 H    -0.000685 -0.000738 -0.000939
    14 H     0.003578 -0.001000 -0.002426
    15 H    -0.002613 -0.003307 -0.001206
 ----------------------------------------
 Mulliken charges used for AMS results%charges...

 dE(predicted):    -0.77952E-03, dE(actual):    -0.21937E-03, Trust radius:    0.400000, all in a.u.
 
----------------------------------------------------------------------
Geometry Convergence after Step   3       (Hartree/Angstrom,Angstrom)
----------------------------------------------------------------------
current energy                               -5.03747632 Hartree
energy change                      -0.00021937     0.00015000    F
constrained gradient max            0.01840318     0.00100000    F
constrained gradient rms            0.00527412     0.00066667    F
gradient max                        0.01840318
gradient rms                        0.00527412
cart. step max                      0.14785732     0.01000000    F
cart. step rms                      0.05415157     0.00666667    F
 
 
--------
Geometry
--------
Formula: C5H6O4
Atoms
  Index Symbol   x (angstrom)   y (angstrom)   z (angstrom)
      1      O    -2.90340257     0.46033047    -0.40806398       adf.R=1.517
      2      O     0.96441871     1.62160006    -0.16357891       adf.R=1.517
      3      O    -1.46607463     0.34596934     1.31323636       adf.R=1.517
      4      O     2.64116691     0.27380658     0.45765717       adf.R=1.517
      5      C    -0.75597273    -0.35539292    -0.89758985       adf.R=1.700
      6      C     0.59329005    -0.69643814    -0.34020090       adf.R=1.700
      7      C    -1.71234866     0.18591615     0.12983939       adf.R=1.700
      8      C     1.51704716     0.41637240     0.00615454       adf.R=1.700
      9      C     1.00430055    -1.93907942    -0.15291776       adf.R=1.700
     10      H    -0.69201202     0.39646444    -1.68072393       adf.R=1.350
     11      H    -1.21450548    -1.23094258    -1.34995385       adf.R=1.350
     12      H     0.36900177    -2.78141221    -0.38496479       adf.R=1.350
     13      H     1.99251072    -2.13542004     0.23372181       adf.R=1.350
     14      H    -3.46892476     0.79353691     0.30752908       adf.R=1.350
     15      H     1.62880496     2.27348895     0.11165560       adf.R=1.350
 
Total System Charge             0.00000
Bonding info available!
 
 *** GOStep4 ***
 Range separated functional parameters:
 RANGESEP OMEGA=    0.330000 ALPHA=    0.190000 BETA=    0.460000 ERF-LONGRANGE 
                                                                                
   

 SOLVATION
-------------------------------------------

  The Delley construction of COSMO surface surface is calculated

       Division Level for Surface Triangles (NDIV)                  3
       Final Division Level for Triangles (NFDIV)                   1
       Radius of the Solvent (RSOL)                           1.93000 angstr
  Dielectric Constant (EPSL)                                 78.39000

       COSMO equation is solved iteratively-               conjugate-gradient

       Maximun of Iterations for Charges (NCIX)                  1000
       Criterion for Charge convergence (CCNV)                1.0E-08

  COSMO charges included variationally in SCF

       COSMO included at every SCF cycle

  Geometry-dependent empirical factor                         0.00000

  C-Matrix calculated in cspmtx

  In cspmtx, C-Matrix calculated using fitted potential

-------------------------------------------



 -------------------------------------------
  COSMO surface
  Area             =          523.884
  Volume           =          865.417
  Number of Points =         1466
 -------------------------------------------



 ======================
 RI Hartree-Fock Scheme
 ======================
  
 Fit Set Quality     : NORMAL
 Integration Quality : NORMAL
 Threshold Quality   : NORMAL
 Response Quality    : DEFAULT
 Is Range Separated  :  T
 Type of Range Separation : 
 Long-Range: Erf potential                                                      
                                                                                
   
 Asymptotic Coulomb       :   0.650000000000000     
 
 RIHartreeFock Dependency: number of modified vectors:           6
 cosmo_calcen: 0.5 (esolb+esolc) (Hartrees) =   -0.028447

 Solvation energy (screening term,uncorrected) =    -17.850490 kcal/mol

 Solvation energy (dispersion and cavitation terms) =      0.979622 kcal/mol
 Solvation Energy Contributions (Hartrees)
          esola   esolb+esolc
     0.02844656   -0.05689313
 esol last cycle   -0.02844656
  
 Hartree-Fock exchange energy:   -16.9578924917573     
 cosmo_calcen: 0.5 (esolb+esolc) (Hartrees) =   -0.028447

 Solvation energy (screening term,uncorrected) =    -17.850484 kcal/mol

 Solvation energy (dispersion and cavitation terms) =      0.979622 kcal/mol
 Solvation Energy Contributions (Hartrees)
          esola   esolb+esolc
     0.02844655   -0.05689311
 esol last cycle   -0.02844655

 Energy gradients wrt nuclear displacements
 ==========================================

     Atom      Cartesian (a.u./angstrom)
                 X         Y         Z
 ----------------------------------------
     1 O    -0.003214 -0.001906 -0.005023
     2 O    -0.006919  0.003691  0.004439
     3 O     0.009431  0.002601  0.029546
     4 O     0.015637 -0.004536  0.011968
     5 C     0.000148 -0.002692 -0.005557
     6 C     0.000815 -0.007200  0.006965
     7 C    -0.008627  0.004340 -0.024058
     8 C    -0.008124  0.008352 -0.020803
     9 C    -0.002296  0.002286  0.000758
    10 H    -0.002604 -0.000917  0.004047
    11 H     0.001354  0.002571 -0.000508
    12 H     0.000540  0.000714  0.000414
    13 H    -0.001209  0.001098 -0.001331
    14 H     0.005693 -0.001989 -0.000635
    15 H    -0.000626 -0.006412 -0.000222
 ----------------------------------------
 Mulliken charges used for AMS results%charges...

 dE(predicted):    -0.97419E-03, dE(actual):    -0.66601E-04, Trust radius:    0.084505, all in a.u.
 
----------------------------------------------------------------------
Geometry Convergence after Step   4       (Hartree/Angstrom,Angstrom)
----------------------------------------------------------------------
current energy                               -5.03754292 Hartree
energy change                      -0.00006660     0.00015000    T
constrained gradient max            0.02950590     0.00100000    F
constrained gradient rms            0.00817122     0.00066667    F
gradient max                        0.02950590
gradient rms                        0.00817122
cart. step max                      0.04167187     0.01000000    F
cart. step rms                      0.01512148     0.00666667    F
 
 
--------
Geometry
--------
Formula: C5H6O4
Atoms
  Index Symbol   x (angstrom)   y (angstrom)   z (angstrom)
      1      O    -2.91707497     0.45211293    -0.40191314       adf.R=1.517
      2      O     1.00073900     1.63039037    -0.18341606       adf.R=1.517
      3      O    -1.49333655     0.31702206     1.31497198       adf.R=1.517
      4      O     2.64577445     0.26477786     0.46122469       adf.R=1.517
      5      C    -0.75653863    -0.34518947    -0.89332739       adf.R=1.700
      6      C     0.59190178    -0.68658694    -0.33293547       adf.R=1.700
      7      C    -1.72403200     0.17622926     0.13540224       adf.R=1.700
      8      C     1.52353871     0.41647196     0.02365484       adf.R=1.700
      9      C     1.00059913    -1.93379738    -0.14987457       adf.R=1.700
     10      H    -0.68630874     0.41243992    -1.67281720       adf.R=1.350
     11      H    -1.20833165    -1.22131621    -1.35513655       adf.R=1.350
     12      H     0.36445082    -2.77322709    -0.39308314       adf.R=1.350
     13      H     1.98522422    -2.13852991     0.24435084       adf.R=1.350
     14      H    -3.49978240     0.77078976     0.30960533       adf.R=1.350
     15      H     1.67047683     2.28721288     0.07509359       adf.R=1.350
 
Total System Charge             0.00000
Bonding info available!
 
 *** GOStep5 ***
 Range separated functional parameters:
 RANGESEP OMEGA=    0.330000 ALPHA=    0.190000 BETA=    0.460000 ERF-LONGRANGE 
                                                                                
   

 SOLVATION
-------------------------------------------

  The Delley construction of COSMO surface surface is calculated

       Division Level for Surface Triangles (NDIV)                  3
       Final Division Level for Triangles (NFDIV)                   1
       Radius of the Solvent (RSOL)                           1.93000 angstr
  Dielectric Constant (EPSL)                                 78.39000

       COSMO equation is solved iteratively-               conjugate-gradient

       Maximun of Iterations for Charges (NCIX)                  1000
       Criterion for Charge convergence (CCNV)                1.0E-08

  COSMO charges included variationally in SCF

       COSMO included at every SCF cycle

  Geometry-dependent empirical factor                         0.00000

  C-Matrix calculated in cspmtx

  In cspmtx, C-Matrix calculated using fitted potential

-------------------------------------------



 -------------------------------------------
  COSMO surface
  Area             =          524.439
  Volume           =          865.991
  Number of Points =         1468
 -------------------------------------------



 ======================
 RI Hartree-Fock Scheme
 ======================
  
 Fit Set Quality     : NORMAL
 Integration Quality : NORMAL
 Threshold Quality   : NORMAL
 Response Quality    : DEFAULT
 Is Range Separated  :  T
 Type of Range Separation : 
 Long-Range: Erf potential                                                      
                                                                                
   
 Asymptotic Coulomb       :   0.650000000000000     
 
 RIHartreeFock Dependency: number of modified vectors:           6
 cosmo_calcen: 0.5 (esolb+esolc) (Hartrees) =   -0.028080

 Solvation energy (screening term,uncorrected) =    -17.620639 kcal/mol

 Solvation energy (dispersion and cavitation terms) =      0.980660 kcal/mol
 Solvation Energy Contributions (Hartrees)
          esola   esolb+esolc
     0.02808027   -0.05616055
 esol last cycle   -0.02808027
  
 Hartree-Fock exchange energy:   -16.9589307620946     
 cosmo_calcen: 0.5 (esolb+esolc) (Hartrees) =   -0.028080

 Solvation energy (screening term,uncorrected) =    -17.620638 kcal/mol

 Solvation energy (dispersion and cavitation terms) =      0.980660 kcal/mol
 Solvation Energy Contributions (Hartrees)
          esola   esolb+esolc
     0.02808027   -0.05616054
 esol last cycle   -0.02808027

 Energy gradients wrt nuclear displacements
 ==========================================

     Atom      Cartesian (a.u./angstrom)
                 X         Y         Z
 ----------------------------------------
     1 O    -0.000433 -0.002057 -0.000434
     2 O    -0.001791  0.000879  0.000821
     3 O     0.000371 -0.000513  0.004820
     4 O     0.003516 -0.000740  0.001395
     5 C     0.000205 -0.003047 -0.002009
     6 C     0.000366  0.000094  0.000838
     7 C     0.000347  0.004879 -0.005524
     8 C    -0.002639  0.001197 -0.003377
     9 C    -0.000215 -0.001602  0.001195
    10 H    -0.000983  0.000155  0.001857
    11 H     0.000329  0.000900 -0.000809
    12 H     0.000118 -0.000026  0.000331
    13 H    -0.000087  0.000093 -0.000525
    14 H    -0.000025  0.000077  0.000980
    15 H     0.000920 -0.000288  0.000440
 ----------------------------------------
 Mulliken charges used for AMS results%charges...

 dE(predicted):    -0.68700E-03, dE(actual):    -0.66396E-03, Trust radius:    0.169009, all in a.u.
 
----------------------------------------------------------------------
Geometry Convergence after Step   5       (Hartree/Angstrom,Angstrom)
----------------------------------------------------------------------
current energy                               -5.03820688 Hartree
energy change                      -0.00066396     0.00015000    F
constrained gradient max            0.00556298     0.00100000    F
constrained gradient rms            0.00181793     0.00066667    F
gradient max                        0.00556298
gradient rms                        0.00181793
cart. step max                      0.04640362     0.01000000    F
cart. step rms                      0.01429077     0.00666667    F
 
 
--------
Geometry
--------
Formula: C5H6O4
Atoms
  Index Symbol   x (angstrom)   y (angstrom)   z (angstrom)
      1      O    -2.90719237     0.47870618    -0.39760295       adf.R=1.517
      2      O     0.99661901     1.62591627    -0.20205825       adf.R=1.517
      3      O    -1.49145681     0.30608271     1.31809739       adf.R=1.517
      4      O     2.62451793     0.27133320     0.49749653       adf.R=1.517
      5      C    -0.76051010    -0.35630380    -0.88816940       adf.R=1.700
      6      C     0.59196109    -0.69007633    -0.33379057       adf.R=1.700
      7      C    -1.72740465     0.15709317     0.14515685       adf.R=1.700
      8      C     1.51775906     0.41552780     0.02830274       adf.R=1.700
      9      C     1.01046180    -1.93515251    -0.15998015       adf.R=1.700
     10      H    -0.69372869     0.39771179    -1.67304932       adf.R=1.350
     11      H    -1.20920643    -1.23810753    -1.34399162       adf.R=1.350
     12      H     0.38658575    -2.77711970    -0.42634715       adf.R=1.350
     13      H     1.99133214    -2.13695977     0.24608763       adf.R=1.350
     14      H    -3.48598797     0.81719338     0.30800662       adf.R=1.350
     15      H     1.65355024     2.29295513     0.06364166       adf.R=1.350
 
Total System Charge             0.00000
Bonding info available!
 
 *** GOStep6 ***
 Range separated functional parameters:
 RANGESEP OMEGA=    0.330000 ALPHA=    0.190000 BETA=    0.460000 ERF-LONGRANGE 
                                                                                
   

 SOLVATION
-------------------------------------------

  The Delley construction of COSMO surface surface is calculated

       Division Level for Surface Triangles (NDIV)                  3
       Final Division Level for Triangles (NFDIV)                   1
       Radius of the Solvent (RSOL)                           1.93000 angstr
  Dielectric Constant (EPSL)                                 78.39000

       COSMO equation is solved iteratively-               conjugate-gradient

       Maximun of Iterations for Charges (NCIX)                  1000
       Criterion for Charge convergence (CCNV)                1.0E-08

  COSMO charges included variationally in SCF

       COSMO included at every SCF cycle

  Geometry-dependent empirical factor                         0.00000

  C-Matrix calculated in cspmtx

  In cspmtx, C-Matrix calculated using fitted potential

-------------------------------------------



 -------------------------------------------
  COSMO surface
  Area             =          524.111
  Volume           =          865.285
  Number of Points =         1465
 -------------------------------------------



 ======================
 RI Hartree-Fock Scheme
 ======================
  
 Fit Set Quality     : NORMAL
 Integration Quality : NORMAL
 Threshold Quality   : NORMAL
 Response Quality    : DEFAULT
 Is Range Separated  :  T
 Type of Range Separation : 
 Long-Range: Erf potential                                                      
                                                                                
   
 Asymptotic Coulomb       :   0.650000000000000     
 
 RIHartreeFock Dependency: number of modified vectors:           6
 cosmo_calcen: 0.5 (esolb+esolc) (Hartrees) =   -0.027926

 Solvation energy (screening term,uncorrected) =    -17.523779 kcal/mol

 Solvation energy (dispersion and cavitation terms) =      0.980047 kcal/mol
 Solvation Energy Contributions (Hartrees)
          esola   esolb+esolc
     0.02792592   -0.05585183
 esol last cycle   -0.02792592
  
 Hartree-Fock exchange energy:   -16.9603834652263     
 cosmo_calcen: 0.5 (esolb+esolc) (Hartrees) =   -0.027926

 Solvation energy (screening term,uncorrected) =    -17.523782 kcal/mol

 Solvation energy (dispersion and cavitation terms) =      0.980047 kcal/mol
 Solvation Energy Contributions (Hartrees)
          esola   esolb+esolc
     0.02792592   -0.05585184
 esol last cycle   -0.02792592

 Energy gradients wrt nuclear displacements
 ==========================================

     Atom      Cartesian (a.u./angstrom)
                 X         Y         Z
 ----------------------------------------
     1 O     0.001838  0.002126  0.000819
     2 O    -0.000357 -0.001208  0.002365
     3 O    -0.001027  0.003215 -0.008590
     4 O    -0.005383  0.001190 -0.000532
     5 C     0.000669  0.001977  0.000779
     6 C    -0.000044  0.001761  0.000696
     7 C    -0.001740 -0.009585  0.007908
     8 C     0.006258 -0.001781 -0.004842
     9 C    -0.000408 -0.000358  0.001408
    10 H     0.000972  0.000522 -0.000361
    11 H    -0.000516  0.000419 -0.000099
    12 H     0.000411 -0.000180 -0.001263
    13 H    -0.000122 -0.000196  0.000882
    14 H    -0.001016  0.000885  0.000475
    15 H     0.000465  0.001212  0.000352
 ----------------------------------------
 Mulliken charges used for AMS results%charges...

 dE(predicted):    -0.13406E-03, dE(actual):     0.25312E-04, Trust radius:    0.031616, all in a.u.
 
----------------------------------------------------------------------
Geometry Convergence after Step   6       (Hartree/Angstrom,Angstrom)
----------------------------------------------------------------------
current energy                               -5.03818157 Hartree
energy change                       0.00002531     0.00015000    T
constrained gradient max            0.00958419     0.00100000    F
constrained gradient rms            0.00288252     0.00066667    F
gradient max                        0.00958419
gradient rms                        0.00288252
cart. step max                      0.00942408     0.01000000    T
cart. step rms                      0.00317908     0.00666667    T
 
 
--------
Geometry
--------
Formula: C5H6O4
Atoms
  Index Symbol   x (angstrom)   y (angstrom)   z (angstrom)
      1      O    -2.90701358     0.47678447    -0.39841188       adf.R=1.517
      2      O     0.99907051     1.62578664    -0.20824973       adf.R=1.517
      3      O    -1.49212817     0.30045277     1.32208714       adf.R=1.517
      4      O     2.62451835     0.27075674     0.50257837       adf.R=1.517
      5      C    -0.75965023    -0.35292618    -0.88815140       adf.R=1.700
      6      C     0.59111282    -0.68937676    -0.33187871       adf.R=1.700
      7      C    -1.72596314     0.16113639     0.14499047       adf.R=1.700
      8      C     1.51598470     0.41592888     0.03391966       adf.R=1.700
      9      C     1.00858676    -1.93446825    -0.15992864       adf.R=1.700
     10      H    -0.69199001     0.40176854    -1.67197644       adf.R=1.350
     11      H    -1.20851172    -1.23385343    -1.34535334       adf.R=1.350
     12      H     0.38350513    -2.77557658    -0.42567268       adf.R=1.350
     13      H     1.98959339    -2.13692193     0.24510156       adf.R=1.350
     14      H    -3.48757541     0.80777039     0.30852805       adf.R=1.350
     15      H     1.65776060     2.29153832     0.05421758       adf.R=1.350
 
Total System Charge             0.00000
Bonding info available!
 
 *** GOStep7 ***
 Range separated functional parameters:
 RANGESEP OMEGA=    0.330000 ALPHA=    0.190000 BETA=    0.460000 ERF-LONGRANGE 
                                                                                
   

 SOLVATION
-------------------------------------------

  The Delley construction of COSMO surface surface is calculated

       Division Level for Surface Triangles (NDIV)                  3
       Final Division Level for Triangles (NFDIV)                   1
       Radius of the Solvent (RSOL)                           1.93000 angstr
  Dielectric Constant (EPSL)                                 78.39000

       COSMO equation is solved iteratively-               conjugate-gradient

       Maximun of Iterations for Charges (NCIX)                  1000
       Criterion for Charge convergence (CCNV)                1.0E-08

  COSMO charges included variationally in SCF

       COSMO included at every SCF cycle

  Geometry-dependent empirical factor                         0.00000

  C-Matrix calculated in cspmtx

  In cspmtx, C-Matrix calculated using fitted potential

-------------------------------------------



 -------------------------------------------
  COSMO surface
  Area             =          523.998
  Volume           =          865.148
  Number of Points =         1462
 -------------------------------------------



 ======================
 RI Hartree-Fock Scheme
 ======================
  
 Fit Set Quality     : NORMAL
 Integration Quality : NORMAL
 Threshold Quality   : NORMAL
 Response Quality    : DEFAULT
 Is Range Separated  :  T
 Type of Range Separation : 
 Long-Range: Erf potential                                                      
                                                                                
   
 Asymptotic Coulomb       :   0.650000000000000     
 
 RIHartreeFock Dependency: number of modified vectors:           6
 cosmo_calcen: 0.5 (esolb+esolc) (Hartrees) =   -0.027989

 Solvation energy (screening term,uncorrected) =    -17.563410 kcal/mol

 Solvation energy (dispersion and cavitation terms) =      0.979836 kcal/mol
 Solvation Energy Contributions (Hartrees)
          esola   esolb+esolc
     0.02798907   -0.05597815
 esol last cycle   -0.02798907
  
 Hartree-Fock exchange energy:   -16.9598088400614     
 cosmo_calcen: 0.5 (esolb+esolc) (Hartrees) =   -0.027989

 Solvation energy (screening term,uncorrected) =    -17.563411 kcal/mol

 Solvation energy (dispersion and cavitation terms) =      0.979836 kcal/mol
 Solvation Energy Contributions (Hartrees)
          esola   esolb+esolc
     0.02798907   -0.05597815
 esol last cycle   -0.02798907

 Energy gradients wrt nuclear displacements
 ==========================================

     Atom      Cartesian (a.u./angstrom)
                 X         Y         Z
 ----------------------------------------
     1 O     0.000150  0.001227 -0.000220
     2 O    -0.000427 -0.000219  0.001049
     3 O     0.000677  0.002352 -0.001008
     4 O    -0.000677  0.000108 -0.000119
     5 C     0.000204  0.001076  0.000219
     6 C     0.000168  0.000230 -0.000046
     7 C    -0.001674 -0.005885  0.002017
     8 C     0.001657 -0.000472 -0.002330
     9 C    -0.000626  0.000409  0.001055
    10 H     0.000531  0.000484  0.000009
    11 H    -0.000114  0.000350 -0.000366
    12 H     0.000298 -0.000019 -0.000851
    13 H    -0.000179 -0.000047  0.000574
    14 H     0.000053  0.000296 -0.000052
    15 H    -0.000039  0.000110  0.000067
 ----------------------------------------
 Mulliken charges used for AMS results%charges...

 dE(predicted):    -0.11254E-03, dE(actual):    -0.10253E-03, Trust radius:    0.063233, all in a.u.
 
----------------------------------------------------------------------
Geometry Convergence after Step   7       (Hartree/Angstrom,Angstrom)
----------------------------------------------------------------------
current energy                               -5.03828410 Hartree
energy change                      -0.00010253     0.00015000    T
constrained gradient max            0.00588302     0.00100000    F
constrained gradient rms            0.00120502     0.00066667    F
gradient max                        0.00588302
gradient rms                        0.00120502
cart. step max                      0.02273901     0.01000000    F
cart. step rms                      0.00561765     0.00666667    T
 
 
--------
Geometry
--------
Formula: C5H6O4
Atoms
  Index Symbol   x (angstrom)   y (angstrom)   z (angstrom)
      1      O    -2.90578438     0.48052431    -0.39739016       adf.R=1.517
      2      O     1.00447533     1.62599562    -0.22009193       adf.R=1.517
      3      O    -1.49271940     0.29394207     1.32310144       adf.R=1.517
      4      O     2.61472767     0.27148160     0.52531739       adf.R=1.517
      5      C    -0.75954461    -0.35153913    -0.88842511       adf.R=1.700
      6      C     0.59029886    -0.68886993    -0.33092638       adf.R=1.700
      7      C    -1.72352815     0.16730623     0.14402985       adf.R=1.700
      8      C     1.51244021     0.41657684     0.04199426       adf.R=1.700
      9      C     1.00965428    -1.93416848    -0.16438830       adf.R=1.700
     10      H    -0.69151486     0.39919249    -1.67597151       adf.R=1.350
     11      H    -1.21054122    -1.23394898    -1.34079065       adf.R=1.350
     12      H     0.38117519    -2.77504132    -0.42256583       adf.R=1.350
     13      H     1.99433358    -2.13656794     0.23156834       adf.R=1.350
     14      H    -3.48857140     0.80231428     0.31192459       adf.R=1.350
     15      H     1.66239889     2.29160236     0.04441399       adf.R=1.350
 
Total System Charge             0.00000
Bonding info available!
 
 *** GOStep8 ***
 Range separated functional parameters:
 RANGESEP OMEGA=    0.330000 ALPHA=    0.190000 BETA=    0.460000 ERF-LONGRANGE 
                                                                                
   

 SOLVATION
-------------------------------------------

  The Delley construction of COSMO surface surface is calculated

       Division Level for Surface Triangles (NDIV)                  3
       Final Division Level for Triangles (NFDIV)                   1
       Radius of the Solvent (RSOL)                           1.93000 angstr
  Dielectric Constant (EPSL)                                 78.39000

       COSMO equation is solved iteratively-               conjugate-gradient

       Maximun of Iterations for Charges (NCIX)                  1000
       Criterion for Charge convergence (CCNV)                1.0E-08

  COSMO charges included variationally in SCF

       COSMO included at every SCF cycle

  Geometry-dependent empirical factor                         0.00000

  C-Matrix calculated in cspmtx

  In cspmtx, C-Matrix calculated using fitted potential

-------------------------------------------



 -------------------------------------------
  COSMO surface
  Area             =          523.723
  Volume           =          864.784
  Number of Points =         1462
 -------------------------------------------



 ======================
 RI Hartree-Fock Scheme
 ======================
  
 Fit Set Quality     : NORMAL
 Integration Quality : NORMAL
 Threshold Quality   : NORMAL
 Response Quality    : DEFAULT
 Is Range Separated  :  T
 Type of Range Separation : 
 Long-Range: Erf potential                                                      
                                                                                
   
 Asymptotic Coulomb       :   0.650000000000000     
 
 RIHartreeFock Dependency: number of modified vectors:           6
 cosmo_calcen: 0.5 (esolb+esolc) (Hartrees) =   -0.027974

 Solvation energy (screening term,uncorrected) =    -17.553756 kcal/mol

 Solvation energy (dispersion and cavitation terms) =      0.979321 kcal/mol
 Solvation Energy Contributions (Hartrees)
          esola   esolb+esolc
     0.02797369   -0.05594738
 esol last cycle   -0.02797369
  
 Hartree-Fock exchange energy:   -16.9599005838787     
 cosmo_calcen: 0.5 (esolb+esolc) (Hartrees) =   -0.027974

 Solvation energy (screening term,uncorrected) =    -17.553758 kcal/mol

 Solvation energy (dispersion and cavitation terms) =      0.979321 kcal/mol
 Solvation Energy Contributions (Hartrees)
          esola   esolb+esolc
     0.02797369   -0.05594738
 esol last cycle   -0.02797369

 Energy gradients wrt nuclear displacements
 ==========================================

     Atom      Cartesian (a.u./angstrom)
                 X         Y         Z
 ----------------------------------------
     1 O    -0.000000 -0.000053  0.000197
     2 O     0.000078 -0.000220  0.000467
     3 O    -0.000019  0.000558 -0.001136
     4 O    -0.000205  0.000049 -0.000703
     5 C     0.000090 -0.000002 -0.000114
     6 C    -0.000024  0.000055 -0.000368
     7 C     0.000039 -0.001298  0.001281
     8 C     0.000213 -0.000026  0.000307
     9 C    -0.000312 -0.000014  0.000495
    10 H     0.000125  0.000581  0.000125
    11 H     0.000074  0.000215 -0.000501
    12 H    -0.000143  0.000034  0.000251
    13 H     0.000098  0.000025 -0.000175
    14 H     0.000063  0.000078 -0.000032
    15 H    -0.000076  0.000017 -0.000095
 ----------------------------------------
 Mulliken charges used for AMS results%charges...

 dE(predicted):    -0.74390E-04, dE(actual):    -0.55193E-04, Trust radius:    0.063233, all in a.u.
 
----------------------------------------------------------------------
Geometry Convergence after Step   8       (Hartree/Angstrom,Angstrom)
----------------------------------------------------------------------
current energy                               -5.03833929 Hartree
energy change                      -0.00005519     0.00015000    T
constrained gradient max            0.00129356     0.00100000    F
constrained gradient rms            0.00040044     0.00066667    T
gradient max                        0.00129356
gradient rms                        0.00040044
cart. step max                      0.02197698     0.01000000    F
cart. step rms                      0.00674219     0.00666667    F
 
 
--------
Geometry
--------
Formula: C5H6O4
Atoms
  Index Symbol   x (angstrom)   y (angstrom)   z (angstrom)
      1      O    -2.90305881     0.48999532    -0.39657350       adf.R=1.517
      2      O     1.00496462     1.62459737    -0.23042360       adf.R=1.517
      3      O    -1.49165464     0.29526049     1.32496561       adf.R=1.517
      4      O     2.60334780     0.27373556     0.54729436       adf.R=1.517
      5      C    -0.76128080    -0.35529781    -0.88594598       adf.R=1.700
      6      C     0.58931019    -0.69074101    -0.32930222       adf.R=1.700
      7      C    -1.72192005     0.17283807     0.14479049       adf.R=1.700
      8      C     1.50688635     0.41663000     0.04970016       adf.R=1.700
      9      C     1.01417950    -1.93526000    -0.17060758       adf.R=1.700
     10      H    -0.69383780     0.38810527    -1.68034855       adf.R=1.350
     11      H    -1.21532565    -1.24075820    -1.32923239       adf.R=1.350
     12      H     0.39239205    -2.77713818    -0.44125211       adf.R=1.350
     13      H     1.99858034    -2.13547102     0.22708821       adf.R=1.350
     14      H    -3.48554376     0.81111033     0.31337742       adf.R=1.350
     15      H     1.66026066     2.29119380     0.03826969       adf.R=1.350
 
Total System Charge             0.00000
Bonding info available!
 
 *** GOStep9 ***
 Range separated functional parameters:
 RANGESEP OMEGA=    0.330000 ALPHA=    0.190000 BETA=    0.460000 ERF-LONGRANGE 
                                                                                
   

 SOLVATION
-------------------------------------------

  The Delley construction of COSMO surface surface is calculated

       Division Level for Surface Triangles (NDIV)                  3
       Final Division Level for Triangles (NFDIV)                   1
       Radius of the Solvent (RSOL)                           1.93000 angstr
  Dielectric Constant (EPSL)                                 78.39000

       COSMO equation is solved iteratively-               conjugate-gradient

       Maximun of Iterations for Charges (NCIX)                  1000
       Criterion for Charge convergence (CCNV)                1.0E-08

  COSMO charges included variationally in SCF

       COSMO included at every SCF cycle

  Geometry-dependent empirical factor                         0.00000

  C-Matrix calculated in cspmtx

  In cspmtx, C-Matrix calculated using fitted potential

-------------------------------------------



 -------------------------------------------
  COSMO surface
  Area             =          523.553
  Volume           =          864.414
  Number of Points =         1467
 -------------------------------------------



 ======================
 RI Hartree-Fock Scheme
 ======================
  
 Fit Set Quality     : NORMAL
 Integration Quality : NORMAL
 Threshold Quality   : NORMAL
 Response Quality    : DEFAULT
 Is Range Separated  :  T
 Type of Range Separation : 
 Long-Range: Erf potential                                                      
                                                                                
   
 Asymptotic Coulomb       :   0.650000000000000     
 
 RIHartreeFock Dependency: number of modified vectors:           6
 cosmo_calcen: 0.5 (esolb+esolc) (Hartrees) =   -0.027986

 Solvation energy (screening term,uncorrected) =    -17.561320 kcal/mol

 Solvation energy (dispersion and cavitation terms) =      0.979003 kcal/mol
 Solvation Energy Contributions (Hartrees)
          esola   esolb+esolc
     0.02798574   -0.05597148
 esol last cycle   -0.02798574
  
 Hartree-Fock exchange energy:   -16.9597111517666     
 cosmo_calcen: 0.5 (esolb+esolc) (Hartrees) =   -0.027986

 Solvation energy (screening term,uncorrected) =    -17.561319 kcal/mol

 Solvation energy (dispersion and cavitation terms) =      0.979003 kcal/mol
 Solvation Energy Contributions (Hartrees)
          esola   esolb+esolc
     0.02798574   -0.05597148
 esol last cycle   -0.02798574

 Energy gradients wrt nuclear displacements
 ==========================================

     Atom      Cartesian (a.u./angstrom)
                 X         Y         Z
 ----------------------------------------
     1 O    -0.000324 -0.000469  0.000083
     2 O     0.000144 -0.000131 -0.000125
     3 O     0.000069 -0.000054  0.000348
     4 O     0.000615 -0.000126 -0.000746
     5 C    -0.000233 -0.000534  0.000410
     6 C     0.000193 -0.000059 -0.000871
     7 C     0.000365  0.000517 -0.000374
     8 C    -0.000757  0.000327  0.000934
     9 C    -0.000426 -0.000306  0.000905
    10 H     0.000128  0.000467  0.000215
    11 H     0.000111  0.000221 -0.000507
    12 H     0.000095  0.000070 -0.000312
    13 H     0.000017  0.000080 -0.000011
    14 H     0.000010 -0.000008  0.000068
    15 H    -0.000006  0.000004 -0.000017
 ----------------------------------------
 Mulliken charges used for AMS results%charges...

 dE(predicted):    -0.38328E-04, dE(actual):    -0.26387E-04, Trust radius:    0.063233, all in a.u.
 
----------------------------------------------------------------------
Geometry Convergence after Step   9       (Hartree/Angstrom,Angstrom)
----------------------------------------------------------------------
current energy                               -5.03836568 Hartree
energy change                      -0.00002639     0.00015000    T
constrained gradient max            0.00095867     0.00100000    T
constrained gradient rms            0.00038435     0.00066667    T
gradient max                        0.00095867
gradient rms                        0.00038435
cart. step max                      0.02209796     0.01000000    F
cart. step rms                      0.00712226     0.00666667    F
 
 
--------
Geometry
--------
Formula: C5H6O4
Atoms
  Index Symbol   x (angstrom)   y (angstrom)   z (angstrom)
      1      O    -2.89849578     0.50164902    -0.39630235       adf.R=1.517
      2      O     1.00238479     1.62296510    -0.23692202       adf.R=1.517
      3      O    -1.48862914     0.29755188     1.32540501       adf.R=1.517
      4      O     2.59042361     0.27677850     0.56939232       adf.R=1.517
      5      C    -0.76318586    -0.36105889    -0.88457001       adf.R=1.700
      6      C     0.58901542    -0.69322281    -0.32991631       adf.R=1.700
      7      C    -1.71987207     0.17600604     0.14521845       adf.R=1.700
      8      C     1.50135908     0.41648555     0.05506151       adf.R=1.700
      9      C     1.02058861    -1.93640353    -0.17962952       adf.R=1.700
     10      H    -0.69797597     0.37463290    -1.68616634       adf.R=1.350
     11      H    -1.22000033    -1.25019222    -1.31763836       adf.R=1.350
     12      H     0.40092223    -2.77990280    -0.45007012       adf.R=1.350
     13      H     2.00647446    -2.13392171     0.21569446       adf.R=1.350
     14      H    -3.47900841     0.82629528     0.31369448       adf.R=1.350
     15      H     1.65329935     2.29113767     0.03854881       adf.R=1.350
 
Total System Charge             0.00000
Bonding info available!
 
 *** GOStep10 ***
 Range separated functional parameters:
 RANGESEP OMEGA=    0.330000 ALPHA=    0.190000 BETA=    0.460000 ERF-LONGRANGE 
                                                                                
   

 SOLVATION
-------------------------------------------

  The Delley construction of COSMO surface surface is calculated

       Division Level for Surface Triangles (NDIV)                  3
       Final Division Level for Triangles (NFDIV)                   1
       Radius of the Solvent (RSOL)                           1.93000 angstr
  Dielectric Constant (EPSL)                                 78.39000

       COSMO equation is solved iteratively-               conjugate-gradient

       Maximun of Iterations for Charges (NCIX)                  1000
       Criterion for Charge convergence (CCNV)                1.0E-08

  COSMO charges included variationally in SCF

       COSMO included at every SCF cycle

  Geometry-dependent empirical factor                         0.00000

  C-Matrix calculated in cspmtx

  In cspmtx, C-Matrix calculated using fitted potential

-------------------------------------------



 -------------------------------------------
  COSMO surface
  Area             =          523.012
  Volume           =          863.719
  Number of Points =         1466
 -------------------------------------------



 ======================
 RI Hartree-Fock Scheme
 ======================
  
 Fit Set Quality     : NORMAL
 Integration Quality : NORMAL
 Threshold Quality   : NORMAL
 Response Quality    : DEFAULT
 Is Range Separated  :  T
 Type of Range Separation : 
 Long-Range: Erf potential                                                      
                                                                                
   
 Asymptotic Coulomb       :   0.650000000000000     
 
 RIHartreeFock Dependency: number of modified vectors:           6
 cosmo_calcen: 0.5 (esolb+esolc) (Hartrees) =   -0.027987

 Solvation energy (screening term,uncorrected) =    -17.562153 kcal/mol

 Solvation energy (dispersion and cavitation terms) =      0.977993 kcal/mol
 Solvation Energy Contributions (Hartrees)
          esola   esolb+esolc
     0.02798707   -0.05597414
 esol last cycle   -0.02798707
  
 Hartree-Fock exchange energy:   -16.9597139746050     
 cosmo_calcen: 0.5 (esolb+esolc) (Hartrees) =   -0.027987

 Solvation energy (screening term,uncorrected) =    -17.562154 kcal/mol

 Solvation energy (dispersion and cavitation terms) =      0.977993 kcal/mol
 Solvation Energy Contributions (Hartrees)
          esola   esolb+esolc
     0.02798707   -0.05597414
 esol last cycle   -0.02798707

 Energy gradients wrt nuclear displacements
 ==========================================

     Atom      Cartesian (a.u./angstrom)
                 X         Y         Z
 ----------------------------------------
     1 O    -0.000243 -0.000417  0.000087
     2 O     0.000071 -0.000042  0.000052
     3 O     0.000083 -0.000028  0.000548
     4 O     0.000394 -0.000054 -0.000400
     5 C    -0.000134 -0.000433  0.000217
     6 C     0.000097 -0.000204 -0.000462
     7 C     0.000211  0.000415 -0.000623
     8 C    -0.000449  0.000231  0.000423
     9 C    -0.000078 -0.000184 -0.000009
    10 H     0.000103  0.000334  0.000244
    11 H     0.000037  0.000228 -0.000409
    12 H    -0.000106  0.000060  0.000150
    13 H    -0.000028  0.000090  0.000074
    14 H    -0.000011 -0.000017  0.000105
    15 H     0.000053  0.000021  0.000003
 ----------------------------------------
 Mulliken charges used for AMS results%charges...

 dE(predicted):    -0.30796E-04, dE(actual):    -0.25855E-04, Trust radius:    0.126465, all in a.u.
 
----------------------------------------------------------------------
Geometry Convergence after Step  10       (Hartree/Angstrom,Angstrom)
----------------------------------------------------------------------
current energy                               -5.03839153 Hartree
energy change                      -0.00002585     0.00015000    T
constrained gradient max            0.00065557     0.00100000    T
constrained gradient rms            0.00025422     0.00066667    T
gradient max                        0.00065557
gradient rms                        0.00025422
cart. step max                      0.04263657     0.01000000    F
cart. step rms                      0.01611181     0.00666667    F
 
 
--------
Geometry
--------
Formula: C5H6O4
Atoms
  Index Symbol   x (angstrom)   y (angstrom)   z (angstrom)
      1      O    -2.88778611     0.52778424    -0.39697819       adf.R=1.517
      2      O     0.99370589     1.61779530    -0.24787637       adf.R=1.517
      3      O    -1.48278036     0.30592473     1.32616599       adf.R=1.517
      4      O     2.56376031     0.28354987     0.61202889       adf.R=1.517
      5      C    -0.76756888    -0.37483696    -0.87965153       adf.R=1.700
      6      C     0.58721896    -0.69961316    -0.32723234       adf.R=1.700
      7      C    -1.71598225     0.18279001     0.14679364       adf.R=1.700
      8      C     1.48825459     0.41546471     0.06845646       adf.R=1.700
      9      C     1.03289487    -1.93955187    -0.19284177       adf.R=1.700
     10      H    -0.70631896     0.34369168    -1.69685899       adf.R=1.350
     11      H    -1.22965950    -1.27191392    -1.29046772       adf.R=1.350
     12      H     0.42414737    -2.78631089    -0.47753123       adf.R=1.350
     13      H     2.02581759    -2.13057277     0.18777449       adf.R=1.350
     14      H    -3.46356690     0.86409190     0.31145374       adf.R=1.350
     15      H     1.63516339     2.29050712     0.03856494       adf.R=1.350
 
Total System Charge             0.00000
Bonding info available!
 
 *** GOStep11 ***
 Range separated functional parameters:
 RANGESEP OMEGA=    0.330000 ALPHA=    0.190000 BETA=    0.460000 ERF-LONGRANGE 
                                                                                
   

 SOLVATION
-------------------------------------------

  The Delley construction of COSMO surface surface is calculated

       Division Level for Surface Triangles (NDIV)                  3
       Final Division Level for Triangles (NFDIV)                   1
       Radius of the Solvent (RSOL)                           1.93000 angstr
  Dielectric Constant (EPSL)                                 78.39000

       COSMO equation is solved iteratively-               conjugate-gradient

       Maximun of Iterations for Charges (NCIX)                  1000
       Criterion for Charge convergence (CCNV)                1.0E-08

  COSMO charges included variationally in SCF

       COSMO included at every SCF cycle

  Geometry-dependent empirical factor                         0.00000

  C-Matrix calculated in cspmtx

  In cspmtx, C-Matrix calculated using fitted potential

-------------------------------------------



 -------------------------------------------
  COSMO surface
  Area             =          522.856
  Volume           =          863.573
  Number of Points =         1471
 -------------------------------------------



 ======================
 RI Hartree-Fock Scheme
 ======================
  
 Fit Set Quality     : NORMAL
 Integration Quality : NORMAL
 Threshold Quality   : NORMAL
 Response Quality    : DEFAULT
 Is Range Separated  :  T
 Type of Range Separation : 
 Long-Range: Erf potential                                                      
                                                                                
   
 Asymptotic Coulomb       :   0.650000000000000     
 
 RIHartreeFock Dependency: number of modified vectors:           6
 cosmo_calcen: 0.5 (esolb+esolc) (Hartrees) =   -0.027995

 Solvation energy (screening term,uncorrected) =    -17.567378 kcal/mol

 Solvation energy (dispersion and cavitation terms) =      0.977700 kcal/mol
 Solvation Energy Contributions (Hartrees)
          esola   esolb+esolc
     0.02799540   -0.05599079
 esol last cycle   -0.02799540
  
 Hartree-Fock exchange energy:   -16.9598687087347     
 cosmo_calcen: 0.5 (esolb+esolc) (Hartrees) =   -0.027995

 Solvation energy (screening term,uncorrected) =    -17.567378 kcal/mol

 Solvation energy (dispersion and cavitation terms) =      0.977700 kcal/mol
 Solvation Energy Contributions (Hartrees)
          esola   esolb+esolc
     0.02799540   -0.05599079
 esol last cycle   -0.02799540

 Energy gradients wrt nuclear displacements
 ==========================================

     Atom      Cartesian (a.u./angstrom)
                 X         Y         Z
 ----------------------------------------
     1 O     0.000151 -0.000175  0.000091
     2 O    -0.000122 -0.000083  0.000142
     3 O     0.000026  0.000193 -0.000407
     4 O    -0.000127  0.000025 -0.000152
     5 C     0.000180  0.000097 -0.000334
     6 C     0.000120 -0.000167 -0.000399
     7 C    -0.000080 -0.000449  0.000407
     8 C     0.000244  0.000063  0.000114
     9 C    -0.000836 -0.000099  0.001919
    10 H    -0.000015  0.000209  0.000094
    11 H    -0.000089  0.000174 -0.000214
    12 H     0.000104  0.000069 -0.000428
    13 H     0.000368  0.000135 -0.000991
    14 H     0.000020 -0.000008  0.000113
    15 H     0.000057  0.000016  0.000045
 ----------------------------------------
 Mulliken charges used for AMS results%charges...

 dE(predicted):    -0.49716E-04, dE(actual):    -0.34610E-04, Trust radius:    0.126465, all in a.u.
 
----------------------------------------------------------------------
Geometry Convergence after Step  11       (Hartree/Angstrom,Angstrom)
----------------------------------------------------------------------
current energy                               -5.03842614 Hartree
energy change                      -0.00003461     0.00015000    T
constrained gradient max            0.00198261     0.00100000    F
constrained gradient rms            0.00039420     0.00066667    T
gradient max                        0.00198261
gradient rms                        0.00039420
cart. step max                      0.03433106     0.01000000    F
cart. step rms                      0.01424261     0.00666667    F
 
 
--------
Geometry
--------
Formula: C5H6O4
Atoms
  Index Symbol   x (angstrom)   y (angstrom)   z (angstrom)
      1      O    -2.87633803     0.55316600    -0.39648037       adf.R=1.517
      2      O     0.98460848     1.61323314    -0.25690267       adf.R=1.517
      3      O    -1.47601396     0.30910061     1.32748223       adf.R=1.517
      4      O     2.54022520     0.28971640     0.64559255       adf.R=1.517
      5      C    -0.77160834    -0.38720773    -0.87624216       adf.R=1.700
      6      C     0.58658201    -0.70517230    -0.32868682       adf.R=1.700
      7      C    -1.71092890     0.18897782     0.14829226       adf.R=1.700
      8      C     1.47590573     0.41476013     0.07912484       adf.R=1.700
      9      C     1.04717053    -1.94162851    -0.21321944       adf.R=1.700
     10      H    -0.71520741     0.31561073    -1.70730986       adf.R=1.350
     11      H    -1.23853974    -1.29121245    -1.26619985       adf.R=1.350
     12      H     0.44622816    -2.79157580    -0.50488872       adf.R=1.350
     13      H     2.03598157    -2.12774878     0.18035017       adf.R=1.350
     14      H    -3.44754967     0.89842296     0.31134071       adf.R=1.350
     15      H     1.61678435     2.29035779     0.03954712       adf.R=1.350
 
Total System Charge             0.00000
Bonding info available!
 
 *** GOStep12 ***
 Range separated functional parameters:
 RANGESEP OMEGA=    0.330000 ALPHA=    0.190000 BETA=    0.460000 ERF-LONGRANGE 
                                                                                
   

 SOLVATION
-------------------------------------------

  The Delley construction of COSMO surface surface is calculated

       Division Level for Surface Triangles (NDIV)                  3
       Final Division Level for Triangles (NFDIV)                   1
       Radius of the Solvent (RSOL)                           1.93000 angstr
  Dielectric Constant (EPSL)                                 78.39000

       COSMO equation is solved iteratively-               conjugate-gradient

       Maximun of Iterations for Charges (NCIX)                  1000
       Criterion for Charge convergence (CCNV)                1.0E-08

  COSMO charges included variationally in SCF

       COSMO included at every SCF cycle

  Geometry-dependent empirical factor                         0.00000

  C-Matrix calculated in cspmtx

  In cspmtx, C-Matrix calculated using fitted potential

-------------------------------------------



 -------------------------------------------
  COSMO surface
  Area             =          524.887
  Volume           =          866.054
  Number of Points =         1482
 -------------------------------------------



 ======================
 RI Hartree-Fock Scheme
 ======================
  
 Fit Set Quality     : NORMAL
 Integration Quality : NORMAL
 Threshold Quality   : NORMAL
 Response Quality    : DEFAULT
 Is Range Separated  :  T
 Type of Range Separation : 
 Long-Range: Erf potential                                                      
                                                                                
   
 Asymptotic Coulomb       :   0.650000000000000     
 
 RIHartreeFock Dependency: number of modified vectors:           6
 cosmo_calcen: 0.5 (esolb+esolc) (Hartrees) =   -0.027989

 Solvation energy (screening term,uncorrected) =    -17.563375 kcal/mol

 Solvation energy (dispersion and cavitation terms) =      0.981498 kcal/mol
 Solvation Energy Contributions (Hartrees)
          esola   esolb+esolc
     0.02798902   -0.05597803
 esol last cycle   -0.02798902
  
 Hartree-Fock exchange energy:   -16.9599122084622     
 cosmo_calcen: 0.5 (esolb+esolc) (Hartrees) =   -0.027989

 Solvation energy (screening term,uncorrected) =    -17.563374 kcal/mol

 Solvation energy (dispersion and cavitation terms) =      0.981498 kcal/mol
 Solvation Energy Contributions (Hartrees)
          esola   esolb+esolc
     0.02798901   -0.05597803
 esol last cycle   -0.02798901

 Energy gradients wrt nuclear displacements
 ==========================================

     Atom      Cartesian (a.u./angstrom)
                 X         Y         Z
 ----------------------------------------
     1 O     0.000136 -0.000091  0.000084
     2 O    -0.000178 -0.000061 -0.000123
     3 O    -0.000022  0.000108 -0.001036
     4 O    -0.000204 -0.000005 -0.000148
     5 C    -0.000036  0.000146  0.000371
     6 C    -0.000176  0.000226  0.000149
     7 C    -0.000072 -0.000266  0.001001
     8 C     0.000264 -0.000054  0.000219
     9 C     0.000700 -0.000080 -0.001639
    10 H     0.000148  0.000081  0.000002
    11 H    -0.000117  0.000021 -0.000067
    12 H    -0.000111  0.000025  0.000213
    13 H    -0.000342 -0.000030  0.000766
    14 H     0.000016 -0.000008  0.000079
    15 H    -0.000005 -0.000011  0.000129
 ----------------------------------------
 Mulliken charges used for AMS results%charges...

 dE(predicted):    -0.34434E-04, dE(actual):    -0.25601E-04, Trust radius:    0.126465, all in a.u.
 
----------------------------------------------------------------------
Geometry Convergence after Step  12       (Hartree/Angstrom,Angstrom)
----------------------------------------------------------------------
current energy                               -5.03845174 Hartree
energy change                      -0.00002560     0.00015000    T
constrained gradient max            0.00157436     0.00100000    F
constrained gradient rms            0.00038496     0.00066667    T
gradient max                        0.00157436
gradient rms                        0.00038496
cart. step max                      0.00792872     0.01000000    T
cart. step rms                      0.00236698     0.00666667    T
 
 
--------
Geometry
--------
Formula: C5H6O4
Atoms
  Index Symbol   x (angstrom)   y (angstrom)   z (angstrom)
      1      O    -2.87569946     0.55748311    -0.39823925       adf.R=1.517
      2      O     0.98677342     1.61353537    -0.25898533       adf.R=1.517
      3      O    -1.48157406     0.30367855     1.32987972       adf.R=1.517
      4      O     2.53917331     0.29005527     0.64882155       adf.R=1.517
      5      C    -0.77218440    -0.38786229    -0.87429946       adf.R=1.700
      6      C     0.58606111    -0.70515341    -0.32625415       adf.R=1.700
      7      C    -1.71280051     0.18867126     0.14896211       adf.R=1.700
      8      C     1.47610424     0.41498429     0.07974047       adf.R=1.700
      9      C     1.04737730    -1.94135465    -0.21151686       adf.R=1.700
     10      H    -0.71580074     0.31395432    -1.70611643       adf.R=1.350
     11      H    -1.23852636    -1.29247985    -1.26348508       adf.R=1.350
     12      H     0.44743734    -2.79144820    -0.50485931       adf.R=1.350
     13      H     2.04011844    -2.12668236     0.17242146       adf.R=1.350
     14      H    -3.44868173     0.90099754     0.30898577       adf.R=1.350
     15      H     1.61952210     2.29042104     0.03674481       adf.R=1.350
 
Total System Charge             0.00000
Bonding info available!
 
 *** GOStep13 ***
 Range separated functional parameters:
 RANGESEP OMEGA=    0.330000 ALPHA=    0.190000 BETA=    0.460000 ERF-LONGRANGE 
                                                                                
   

 SOLVATION
-------------------------------------------

  The Delley construction of COSMO surface surface is calculated

       Division Level for Surface Triangles (NDIV)                  3
       Final Division Level for Triangles (NFDIV)                   1
       Radius of the Solvent (RSOL)                           1.93000 angstr
  Dielectric Constant (EPSL)                                 78.39000

       COSMO equation is solved iteratively-               conjugate-gradient

       Maximun of Iterations for Charges (NCIX)                  1000
       Criterion for Charge convergence (CCNV)                1.0E-08

  COSMO charges included variationally in SCF

       COSMO included at every SCF cycle

  Geometry-dependent empirical factor                         0.00000

  C-Matrix calculated in cspmtx

  In cspmtx, C-Matrix calculated using fitted potential

-------------------------------------------



 -------------------------------------------
  COSMO surface
  Area             =          525.333
  Volume           =          866.601
  Number of Points =         1480
 -------------------------------------------



 ======================
 RI Hartree-Fock Scheme
 ======================
  
 Fit Set Quality     : NORMAL
 Integration Quality : NORMAL
 Threshold Quality   : NORMAL
 Response Quality    : DEFAULT
 Is Range Separated  :  T
 Type of Range Separation : 
 Long-Range: Erf potential                                                      
                                                                                
   
 Asymptotic Coulomb       :   0.650000000000000     
 
 RIHartreeFock Dependency: number of modified vectors:           6
 cosmo_calcen: 0.5 (esolb+esolc) (Hartrees) =   -0.028038

 Solvation energy (screening term,uncorrected) =    -17.594293 kcal/mol

 Solvation energy (dispersion and cavitation terms) =      0.982332 kcal/mol
 Solvation Energy Contributions (Hartrees)
          esola   esolb+esolc
     0.02803829   -0.05607657
 esol last cycle   -0.02803829
  
 Hartree-Fock exchange energy:   -16.9597354299092     
 cosmo_calcen: 0.5 (esolb+esolc) (Hartrees) =   -0.028038

 Solvation energy (screening term,uncorrected) =    -17.594293 kcal/mol

 Solvation energy (dispersion and cavitation terms) =      0.982332 kcal/mol
 Solvation Energy Contributions (Hartrees)
          esola   esolb+esolc
     0.02803829   -0.05607658
 esol last cycle   -0.02803829

 Energy gradients wrt nuclear displacements
 ==========================================

     Atom      Cartesian (a.u./angstrom)
                 X         Y         Z
 ----------------------------------------
     1 O    -0.000165 -0.000084 -0.000005
     2 O     0.000060  0.000141  0.000064
     3 O     0.000108  0.000059  0.000340
     4 O    -0.000024  0.000041  0.000174
     5 C     0.000049 -0.000036 -0.000065
     6 C    -0.000132 -0.000070  0.000198
     7 C    -0.000009 -0.000060 -0.000164
     8 C     0.000078 -0.000112 -0.000307
     9 C     0.000046  0.000004 -0.000155
    10 H     0.000028  0.000064  0.000058
    11 H    -0.000049  0.000046 -0.000072
    12 H     0.000026  0.000025 -0.000120
    13 H     0.000008  0.000008 -0.000061
    14 H     0.000008 -0.000032  0.000040
    15 H    -0.000030  0.000005  0.000075
 ----------------------------------------
[...]
    11     H      -0.287036   0.099883   0.096306
    12     H       0.045971  -0.094886   0.051868
    13     H       0.010140   0.037407  -0.019829
    14     H       0.421397  -0.089795   0.414428
    15     H      -0.330093   0.377205  -0.202867
 
 Mode:    29      Frequency (cm-1):     1167.5013     Intensity (km/mol):      879.1000
 Index  Atom      ---- Displacements (x/y/z) ----
     1     O      -0.119916   0.029686  -0.102750
     2     O      -0.112604   0.138572  -0.068013
     3     O       0.008819   0.006234   0.057711
     4     O       0.079619  -0.005312   0.043336
     5     C       0.009124  -0.006261  -0.011132
     6     C      -0.028794  -0.005948   0.008449
     7     C       0.147304  -0.053398   0.014067
     8     C       0.015433  -0.186234   0.015358
     9     C       0.020081   0.052128   0.005723
    10     H      -0.195574   0.085269   0.053604
    11     H      -0.139989   0.043428   0.048944
    12     H      -0.124130   0.158068   0.009216
    13     H       0.007543  -0.046331  -0.022662
    14     H       0.389782  -0.084450   0.381014
    15     H       0.406498  -0.463051   0.249764
 
 Mode:    30      Frequency (cm-1):     1221.2855     Intensity (km/mol):       10.2426
 Index  Atom      ---- Displacements (x/y/z) ----
     1     O      -0.002482   0.011215  -0.007907
     2     O       0.015100   0.006653   0.007371
     3     O       0.007960   0.014835   0.003835
     4     O       0.015930   0.008349   0.007432
     5     C       0.045052   0.027716   0.022303
     6     C      -0.090891  -0.057124  -0.072289
     7     C      -0.035099  -0.085496   0.017148
     8     C       0.003624  -0.014947   0.004088
     9     C       0.032096   0.056649   0.019267
    10     H       0.660784  -0.261559  -0.169238
    11     H      -0.439293   0.187470   0.212135
    12     H      -0.171266   0.238668  -0.083022
    13     H      -0.006643  -0.107332   0.022804
    14     H       0.040646  -0.005010   0.037560
    15     H      -0.125227   0.167848  -0.077645
 
 Mode:    31      Frequency (cm-1):     1286.3356     Intensity (km/mol):        2.4860
 Index  Atom      ---- Displacements (x/y/z) ----
     1     O      -0.000211   0.009355   0.026183
     2     O      -0.032067  -0.023244  -0.016433
     3     O      -0.008554   0.006784  -0.018385
     4     O      -0.001185  -0.018903  -0.000177
     5     C       0.005705  -0.028597  -0.033574
     6     C       0.131366   0.042923   0.059294
     7     C       0.015289  -0.051568   0.003793
     8     C       0.000106   0.075872  -0.000709
     9     C      -0.057871  -0.010826  -0.025056
    10     H       0.111011  -0.020667  -0.019611
    11     H      -0.687000   0.264588   0.092926
    12     H       0.089003  -0.127706   0.032898
    13     H      -0.017475   0.260746   0.007695
    14     H      -0.213681   0.059032  -0.182658
    15     H       0.258647  -0.354283   0.163968
 
 Mode:    32      Frequency (cm-1):     1320.1081     Intensity (km/mol):       18.5833
 Index  Atom      ---- Displacements (x/y/z) ----
     1     O      -0.032021   0.021945   0.060269
     2     O       0.017802   0.026116   0.008652
     3     O      -0.031300   0.001279  -0.056171
     4     O      -0.002732   0.014907  -0.001674
     5     C       0.103128  -0.025192  -0.005004
     6     C      -0.064396  -0.042911  -0.002894
     7     C       0.122460  -0.038439   0.002154
     8     C       0.003203  -0.073218   0.002486
     9     C       0.017804   0.027683   0.005868
    10     H      -0.433913   0.233680   0.179843
    11     H      -0.170984   0.038507   0.179504
    12     H      -0.128656   0.141108  -0.009950
    13     H       0.020516   0.009865  -0.024976
    14     H      -0.530103   0.139851  -0.429643
    15     H      -0.160496   0.228090  -0.101646
 
 Mode:    33      Frequency (cm-1):     1389.9182     Intensity (km/mol):      100.1181
 Index  Atom      ---- Displacements (x/y/z) ----
     1     O      -0.029030   0.013417   0.015991
     2     O      -0.041517  -0.074508  -0.017627
     3     O      -0.017077   0.001993  -0.018994
     4     O       0.067722  -0.038509   0.038659
     5     C       0.019637   0.026768   0.041802
     6     C      -0.183987  -0.035424  -0.078309
     7     C       0.099846  -0.029842   0.003433
     8     C      -0.008008   0.263386  -0.022592
     9     C       0.048644  -0.005939   0.019922
    10     H       0.043758  -0.005614   0.016520
    11     H       0.316978  -0.117222   0.037122
    12     H       0.070735  -0.037422   0.018021
    13     H      -0.008950  -0.407180  -0.019523
    14     H      -0.201731   0.052012  -0.155176
    15     H       0.379270  -0.542474   0.242503
 
 Mode:    34      Frequency (cm-1):     1420.2069     Intensity (km/mol):      255.1226
 Index  Atom      ---- Displacements (x/y/z) ----
     1     O       0.048515  -0.022136  -0.015224
     2     O      -0.009492  -0.018909  -0.003484
     3     O       0.029773  -0.009522   0.015265
     4     O       0.025657  -0.011558   0.014568
     5     C       0.178602  -0.056364  -0.044537
     6     C      -0.064411  -0.088566  -0.007174
     7     C      -0.197838   0.083668  -0.002985
     8     C      -0.004995   0.086288  -0.010266
     9     C       0.016926   0.002232   0.004837
    10     H      -0.520128   0.247547   0.158026
    11     H      -0.266124   0.076599   0.167827
    12     H      -0.307591   0.268122  -0.078343
    13     H       0.062645   0.276709  -0.001905
    14     H       0.295224  -0.078261   0.233308
    15     H       0.090841  -0.129283   0.060427
 
 Mode:    35      Frequency (cm-1):     1437.5553     Intensity (km/mol):       37.2851
 Index  Atom      ---- Displacements (x/y/z) ----
     1     O       0.008845  -0.003735  -0.004485
     2     O       0.000588   0.003660  -0.000020
     3     O       0.005310  -0.002031  -0.004913
     4     O      -0.002625   0.003385  -0.001741
     5     C       0.015576  -0.031476  -0.063190
     6     C      -0.018435   0.064795  -0.007975
     7     C      -0.040072   0.011934   0.007013
     8     C       0.001143  -0.025897   0.002337
     9     C      -0.008683   0.016272  -0.003669
    10     H       0.214050   0.411041   0.334842
    11     H      -0.106414  -0.201547   0.506269
    12     H       0.312722  -0.264948   0.123480
    13     H      -0.060979  -0.392304  -0.053032
    14     H       0.065896  -0.017581   0.053741
    15     H      -0.016648   0.020838  -0.008458
 
 Mode:    36      Frequency (cm-1):     1460.6407     Intensity (km/mol):       74.5852
 Index  Atom      ---- Displacements (x/y/z) ----
     1     O      -0.007488   0.002362  -0.001246
     2     O      -0.000895  -0.005259  -0.000764
     3     O      -0.006155   0.000671  -0.008072
     4     O      -0.000344  -0.004717  -0.000331
     5     C      -0.093802   0.024826  -0.043306
     6     C       0.046170  -0.058866   0.005006
     7     C       0.039107  -0.011231   0.005354
     8     C      -0.002312   0.029720   0.000209
     9     C       0.008922  -0.034087   0.003244
    10     H       0.316885   0.288928   0.218592
    11     H       0.223348  -0.309242   0.375734
    12     H      -0.359559   0.280686  -0.132467
    13     H       0.078168   0.471330   0.058148
    14     H      -0.026974   0.004702  -0.020341
    15     H       0.027121  -0.035177   0.016747
 
 Mode:    37      Frequency (cm-1):     1723.2777     Intensity (km/mol):      294.7388
 Index  Atom      ---- Displacements (x/y/z) ----
     1     O      -0.003716   0.001916  -0.000584
     2     O       0.025005  -0.006049   0.013626
     3     O      -0.002039  -0.000352  -0.005665
     4     O       0.201237  -0.010064   0.107606
     5     C       0.044640  -0.039624   0.013534
     6     C      -0.116706   0.426829  -0.024813
     7     C       0.009369  -0.005442   0.011630
     8     C      -0.324627  -0.055422  -0.170523
     9     C       0.120048  -0.354321   0.025831
    10     H       0.108310  -0.034802   0.017791
    11     H      -0.157911   0.090633  -0.025183
    12     H      -0.377588  -0.009262  -0.147196
    13     H       0.257578   0.331329   0.136576
    14     H      -0.002297   0.003444  -0.000007
    15     H      -0.144961   0.182732  -0.088212
 
 Mode:    38      Frequency (cm-1):     1762.7345     Intensity (km/mol):      410.0594
 Index  Atom      ---- Displacements (x/y/z) ----
     1     O      -0.000410   0.000071  -0.002092
     2     O      -0.042757  -0.005804  -0.021384
     3     O      -0.001687  -0.001810  -0.018350
     4     O      -0.275774   0.031331  -0.146192
     5     C       0.043835  -0.036086   0.009919
     6     C      -0.200102   0.295544  -0.068155
     7     C       0.001224   0.001668   0.031851
     8     C       0.462008  -0.027033   0.238524
     9     C       0.116603  -0.268393   0.031548
    10     H       0.079374  -0.035541   0.011438
    11     H      -0.098574   0.049703  -0.028651
    12     H      -0.364712   0.063141  -0.130895
    13     H       0.239049   0.219411   0.103152
    14     H       0.014696  -0.002116   0.011627
    15     H       0.175420  -0.263735   0.115784
 
 Mode:    39      Frequency (cm-1):     1772.2545     Intensity (km/mol):      650.4362
 Index  Atom      ---- Displacements (x/y/z) ----
     1     O       0.000854   0.009095   0.057313
     2     O      -0.002932   0.001504  -0.000554
     3     O       0.073197   0.047907   0.438975
     4     O      -0.007963   0.002551  -0.004049
     5     C      -0.017229   0.015556   0.058540
     6     C      -0.019498   0.020082  -0.021293
     7     C      -0.044433  -0.105371  -0.710101
     8     C       0.018448  -0.006681   0.008778
     9     C       0.015172  -0.022053   0.007298
    10     H      -0.036140   0.132714   0.142228
    11     H      -0.047313  -0.016567   0.145506
    12     H      -0.027981   0.013847  -0.020481
    13     H       0.015916  -0.004953   0.021514
    14     H      -0.348352   0.090144  -0.278822
    15     H       0.007578  -0.011780   0.006800
 
 Mode:    40      Frequency (cm-1):     3085.5850     Intensity (km/mol):        6.2556
 Index  Atom      ---- Displacements (x/y/z) ----
     1     O       0.000118  -0.000095  -0.000193
     2     O       0.000140  -0.000020   0.000109
     3     O       0.000172   0.000095   0.000773
     4     O      -0.000175  -0.000095  -0.000110
     5     C      -0.020579  -0.007100  -0.066624
     6     C       0.000663  -0.000420   0.000415
     7     C      -0.000634   0.000152  -0.001241
     8     C       0.000398   0.000608   0.000220
     9     C       0.000100   0.000964  -0.000013
    10     H      -0.046377  -0.481768   0.557276
    11     H       0.281279   0.563386   0.231191
    12     H      -0.008576  -0.010492  -0.003644
    13     H       0.009163  -0.000288   0.002891
    14     H      -0.001272   0.000598   0.003369
    15     H       0.000488  -0.000608   0.000396
 
 Mode:    41      Frequency (cm-1):     3127.2295     Intensity (km/mol):        0.3849
 Index  Atom      ---- Displacements (x/y/z) ----
     1     O      -0.000007  -0.000014   0.000083
     2     O       0.000111  -0.000045   0.000088
     3     O       0.000079   0.000241  -0.000070
     4     O       0.000120  -0.000096   0.000049
     5     C       0.029123   0.085658  -0.020189
     6     C      -0.000328   0.000765  -0.000117
     7     C       0.000155   0.000903  -0.000200
     8     C      -0.000719   0.000314  -0.000261
     9     C      -0.000091  -0.001440  -0.000249
    10     H      -0.035517  -0.423750   0.515938
    11     H      -0.308415  -0.613013  -0.270659
    12     H       0.008034   0.010031   0.004726
    13     H      -0.004961   0.000015  -0.002828
    14     H      -0.000268  -0.001241   0.000011
    15     H       0.001250   0.000243   0.000671
 
 Mode:    42      Frequency (cm-1):     3172.6929     Intensity (km/mol):        4.6592
 Index  Atom      ---- Displacements (x/y/z) ----
     1     O      -0.000033   0.000020   0.000016
     2     O       0.000080   0.000237   0.000028
     3     O      -0.000022   0.000016   0.000018
     4     O       0.000448  -0.000267   0.000215
     5     C       0.001026   0.001159   0.000892
     6     C       0.003330  -0.007893   0.000895
     7     C      -0.000019  -0.000008  -0.000106
     8     C      -0.001243  -0.000551  -0.000599
     9     C      -0.020293   0.066128  -0.003874
    10     H      -0.001196   0.002150  -0.002217
    11     H      -0.009429  -0.017421  -0.007601
    12     H      -0.411760  -0.575214  -0.201078
    13     H       0.619630  -0.111569   0.239622
    14     H      -0.000271   0.000125   0.000087
    15     H       0.000289   0.001300   0.000016
 
 Mode:    43      Frequency (cm-1):     3265.9081     Intensity (km/mol):        0.1472
 Index  Atom      ---- Displacements (x/y/z) ----
     1     O       0.000012  -0.000019  -0.000015
     2     O       0.000102   0.000082   0.000041
     3     O      -0.000004  -0.000003   0.000006
     4     O       0.000238  -0.000242   0.000116
     5     C       0.000106  -0.000576   0.000036
     6     C      -0.000872  -0.000334  -0.000348
     7     C       0.000047   0.000033  -0.000004
     8     C      -0.000511   0.000389  -0.000242
     9     C      -0.087338  -0.032911  -0.036925
    10     H       0.000362   0.001342  -0.000670
    11     H       0.003884   0.003895   0.002731
    12     H       0.370133   0.527727   0.181376
    13     H       0.675328  -0.132081   0.260727
    14     H      -0.000075   0.000033   0.000107
    15     H      -0.000568  -0.000352  -0.000317
 
 Mode:    44      Frequency (cm-1):     3727.1802     Intensity (km/mol):      181.9626
 Index  Atom      ---- Displacements (x/y/z) ----
     1     O       0.037322  -0.022034  -0.043860
     2     O       0.000018   0.000019   0.000015
     3     O      -0.000571   0.000093  -0.000883
     4     O      -0.000019  -0.000006  -0.000006
     5     C      -0.000358   0.000327   0.000638
     6     C      -0.000024   0.000011   0.000033
     7     C       0.002272  -0.001012  -0.000582
     8     C       0.000037   0.000016   0.000015
     9     C       0.000007  -0.000010   0.000006
    10     H      -0.001011   0.001642  -0.001510
    11     H      -0.001933  -0.001416  -0.000925
    12     H       0.000112   0.000058   0.000037
    13     H      -0.000258   0.000042  -0.000136
    14     H      -0.602751   0.356122   0.711368
    15     H      -0.000443  -0.000479  -0.000178
 
 Mode:    45      Frequency (cm-1):     3729.5409     Intensity (km/mol):      207.9142
 Index  Atom      ---- Displacements (x/y/z) ----
     1     O       0.000051  -0.000028  -0.000026
     2     O      -0.039275  -0.043957  -0.018081
     3     O       0.000052   0.000013  -0.000008
     4     O      -0.000781   0.000535  -0.000451
     5     C       0.000045   0.000041   0.000031
     6     C       0.000189   0.000692   0.000098
     7     C      -0.000082   0.000006  -0.000024
     8     C      -0.000437  -0.002571  -0.000107
     9     C       0.000024  -0.000119   0.000020
    10     H      -0.000072   0.000345  -0.000575
    11     H       0.000570   0.000850   0.000109
    12     H       0.000726   0.000769   0.000369
    13     H       0.000134  -0.000107  -0.000032
    14     H      -0.000437   0.000234   0.000423
    15     H       0.636262   0.710508   0.294169

PES point character: Geometry corresponds to a local minimum on the PES.




 ============================
 Statistical Thermal Analysis  ***  ideal gas assumed  ***
 ============================
  
 Pressure:                  1.000000 atm.
 Temperature:             298.150000 K



 Moments of Inertia [amu*bohr^2] and principal axis
 ==================================================

         631.4320       1592.2387       1857.3327
 ------------------------------------------------
           0.9966          0.0666         -0.0487
          -0.0750          0.9768         -0.2005
           0.0342          0.2035          0.9785


 The rotational contribution to the molecular entropy includes
 a term, dependent on the symmetry number sigma. The results 
 reported below were computed using sigma = 1, determined from
 the point group symmetry of the input geometry (NOSYM). 
 If this is not the correct symmetry, try symmetrizing the molecule before
 running the calculation (note: linear molecules should be aligned along one
 of the Cartesian axes).
 Contributions from frequencies below 20 1/cm are not included in vibrational sums.
 Their contributions, if any, are reported separately.


     Temp                                                        Transl      Rotat     Vibrat     Total
     ----                                                        ------      -----     ------     -----

     298.15   Entropy (cal/mol-K):                               40.501     29.014     25.855     95.370
              Nuclear Internal Energy (kcal/mol):                 0.889      0.889     73.525     75.302
              Constant Volume Heat Capacity (cal/mol-K):          2.981      2.981     25.513     31.475
          (c) Constant Volume Heat Capacity (cal/mol-K):          2.981      2.981     22.817     28.779

       Summary of energy terms
                                                   hartree              eV         kcal/mol           kJ/mol
                                      --------------------     -----------       ----------      -----------
      Energy from Engine:               -5.038458600463971       -137.1034         -3161.68        -13228.47
      Nuclear Internal Energy:           0.120002123804142          3.2654            75.30           315.07
  (c) Nuclear Internal Energy:           0.118656292900135          3.2288            74.46           311.53
      Internal Energy U:                -4.918456476659829       -133.8380         -3086.38        -12913.41
      pV/n = RT:                         0.000944186013486          0.0257             0.59             2.48
      Enthalpy H:                       -4.917512290646343       -133.8123         -3085.79        -12910.93
      -T*S:                             -0.045313376435347         -1.2330           -28.43          -118.97
  (c) -T*S:                             -0.043715088833305         -1.1895           -27.43          -114.77
      Gibbs free energy:                -4.962825667081689       -135.0454         -3114.22        -13029.90
 
 
 
  (c) The properties marked with this symbol have been corrected using 'low vibrational frequency free rotor
      interpolation corrections'. For those terms all positive frequencies are used (also ones below 20 1/cm),
      but the contribution to the partition function of small vibrational frequencies is modified as described
      in the following paper:
      S. Grimme, 'Supramolecular Binding Thermodynamics by Dispersion-Corrected Density Functional Theory'
      (Chem. Eur. J. 2012, 18, 9955-9964)
      Configuration: Dampener Frequency          :   100.000 1/cm
                     Dampener Alpha              :     4.000
                     Averaging Moment of Inertia : 1.000E-44 kg m2

--------------
Atomic charges
--------------
  Index   Atom    Charge
      1      O   -0.5128
      2      O   -0.4941
      3      O   -0.6409
      4      O   -0.6527
      5      C    0.1799
      6      C   -0.0458
      7      C    0.8189
      8      C    0.8241
      9      C    0.4033
     10      H   -0.0583
     11      H   -0.0870
     12      H   -0.1565
     13      H   -0.1239
     14      H    0.2817
     15      H    0.2639


Dipole moment vector    (Debye):    -2.79990733   -0.41749951   -3.58863707
              magnitude (Debye):     4.57078800


Final PES point is a local minimum. Geometry optimization successful!


AMS application finished. Exiting.
NORMAL TERMINATION
     Total cpu time:    7583.96
  Total system time:      79.99
 Total elapsed time:    7871.62
