 *******************************************************************************
 ** Cite this program as: MOPAC2016, Version: 21.329L, James J. P. Stewart,   **
 **                           web-site: HTTP://OpenMOPAC.net.                 **
 *******************************************************************************
 **                                                                           **
 **                                MOPAC2016                                  **
 **                                                                           **
 *******************************************************************************

                              PM7 CALCULATION RESULTS

 *******************************************************************************
 *  CALCULATION DONE:                                Sat Feb  5 17:44:02 2022  *
 *  MERS=N     - NUMBER OF FUNDAMENTAL UNIT CELLS USED: 12
 *  T=         - A TIME OF 172800.0 SECONDS REQUESTED
 *  DUMP=N     - RESTART FILE WRITTEN EVERY 7200.0 SECONDS REQUESTED
 *******************************************************************************
   MERS=(2,2,3)
 urea_cif

   ATOM   CHEMICAL          X               Y               Z
  NUMBER   SYMBOL      (ANGSTROMS)     (ANGSTROMS)     (ANGSTROMS)
 
     1       C          0.00000000  *  -2.78600000  *   1.53000000  *
     2       O          0.00000000  *  -2.78600000  *   2.78800000  *
     3       N          0.81100000  *  -1.97500000  *   0.82900000  *
     4       H          1.43300000  *  -1.35300000  *   1.31600000  *
     5       H          0.79800000  *  -1.98800000  *  -0.19300000  *
     6       N         -0.81100000  *  -3.59700000  *   0.82900000  *
     7       H         -1.43300000  *  -4.21900000  *   1.31600000  *
     8       H         -0.79800000  *  -3.58400000  *  -0.19300000  *
     9       C          5.57200000  *  -2.78600000  *   1.53000000  *
    10       O          5.57200000  *  -2.78600000  *   2.78800000  *
    11       N          6.38300000  *  -1.97500000  *   0.82900000  *
    12       H          7.00500000  *  -1.35300000  *   1.31600000  *
    13       H          6.37000000  *  -1.98800000  *  -0.19300000  *
    14       N          4.76100000  *  -3.59700000  *   0.82900000  *
    15       H          4.13900000  *  -4.21900000  *   1.31600000  *
    16       H          4.77400000  *  -3.58400000  *  -0.19300000  *
    17       C          0.00000000  *   2.78600000  *   1.53000000  *
    18       O          0.00000000  *   2.78600000  *   2.78800000  *
    19       N          0.81100000  *   3.59700000  *   0.82900000  *
    20       H          1.43300000  *   4.21900000  *   1.31600000  *
    21       H          0.79800000  *   3.58400000  *  -0.19300000  *
    22       N         -0.81100000  *   1.97500000  *   0.82900000  *
    23       H         -1.43300000  *   1.35300000  *   1.31600000  *
    24       H         -0.79800000  *   1.98800000  *  -0.19300000  *
    25       C          5.57200000  *   2.78600000  *   1.53000000  *
    26       O          5.57200000  *   2.78600000  *   2.78800000  *
    27       N          6.38300000  *   3.59700000  *   0.82900000  *
    28       H          7.00500000  *   4.21900000  *   1.31600000  *
    29       H          6.37000000  *   3.58400000  *  -0.19300000  *
    30       N          4.76100000  *   1.97500000  *   0.82900000  *
    31       H          4.13900000  *   1.35300000  *   1.31600000  *
    32       H          4.77400000  *   1.98800000  *  -0.19300000  *
    33       C          0.00000000  *  -2.78600000  *   6.21600000  *
    34       O          0.00000000  *  -2.78600000  *   7.47400000  *
    35       N          0.81100000  *  -1.97500000  *   5.51500000  *
    36       H          1.43300000  *  -1.35300000  *   6.00200000  *
    37       H          0.79800000  *  -1.98800000  *   4.49300000  *
    38       N         -0.81100000  *  -3.59700000  *   5.51500000  *
    39       H         -1.43300000  *  -4.21900000  *   6.00200000  *
    40       H         -0.79800000  *  -3.58400000  *   4.49300000  *
    41       C          5.57200000  *  -2.78600000  *   6.21600000  *
    42       O          5.57200000  *  -2.78600000  *   7.47400000  *
    43       N          6.38300000  *  -1.97500000  *   5.51500000  *
    44       H          7.00500000  *  -1.35300000  *   6.00200000  *
    45       H          6.37000000  *  -1.98800000  *   4.49300000  *
    46       N          4.76100000  *  -3.59700000  *   5.51500000  *
    47       H          4.13900000  *  -4.21900000  *   6.00200000  *
    48       H          4.77400000  *  -3.58400000  *   4.49300000  *
    49       C          0.00000000  *   2.78600000  *   6.21600000  *
    50       O          0.00000000  *   2.78600000  *   7.47400000  *
    51       N          0.81100000  *   3.59700000  *   5.51500000  *
    52       H          1.43300000  *   4.21900000  *   6.00200000  *
    53       H          0.79800000  *   3.58400000  *   4.49300000  *
    54       N         -0.81100000  *   1.97500000  *   5.51500000  *
    55       H         -1.43300000  *   1.35300000  *   6.00200000  *
    56       H         -0.79800000  *   1.98800000  *   4.49300000  *
    57       C          5.57200000  *   2.78600000  *   6.21600000  *
    58       O          5.57200000  *   2.78600000  *   7.47400000  *
    59       N          6.38300000  *   3.59700000  *   5.51500000  *
    60       H          7.00500000  *   4.21900000  *   6.00200000  *
    61       H          6.37000000  *   3.58400000  *   4.49300000  *
    62       N          4.76100000  *   1.97500000  *   5.51500000  *
    63       H          4.13900000  *   1.35300000  *   6.00200000  *
    64       H          4.77400000  *   1.98800000  *   4.49300000  *
    65       C          0.00000000  *  -2.78600000  *  10.90200000  *
    66       O          0.00000000  *  -2.78600000  *  12.16000000  *
    67       N          0.81100000  *  -1.97500000  *  10.20100000  *
    68       H          1.43300000  *  -1.35300000  *  10.68800000  *
    69       H          0.79800000  *  -1.98800000  *   9.17900000  *
    70       N         -0.81100000  *  -3.59700000  *  10.20100000  *
    71       H         -1.43300000  *  -4.21900000  *  10.68800000  *
    72       H         -0.79800000  *  -3.58400000  *   9.17900000  *
    73       C          5.57200000  *  -2.78600000  *  10.90200000  *
    74       O          5.57200000  *  -2.78600000  *  12.16000000  *
    75       N          6.38300000  *  -1.97500000  *  10.20100000  *
    76       H          7.00500000  *  -1.35300000  *  10.68800000  *
    77       H          6.37000000  *  -1.98800000  *   9.17900000  *
    78       N          4.76100000  *  -3.59700000  *  10.20100000  *
    79       H          4.13900000  *  -4.21900000  *  10.68800000  *
    80       H          4.77400000  *  -3.58400000  *   9.17900000  *
    81       C          0.00000000  *   2.78600000  *  10.90200000  *
    82       O          0.00000000  *   2.78600000  *  12.16000000  *
    83       N          0.81100000  *   3.59700000  *  10.20100000  *
    84       H          1.43300000  *   4.21900000  *  10.68800000  *
    85       H          0.79800000  *   3.58400000  *   9.17900000  *
    86       N         -0.81100000  *   1.97500000  *  10.20100000  *
    87       H         -1.43300000  *   1.35300000  *  10.68800000  *
    88       H         -0.79800000  *   1.98800000  *   9.17900000  *
    89       C          5.57200000  *   2.78600000  *  10.90200000  *
    90       O          5.57200000  *   2.78600000  *  12.16000000  *
    91       N          6.38300000  *   3.59700000  *  10.20100000  *
    92       H          7.00500000  *   4.21900000  *  10.68800000  *
    93       H          6.37000000  *   3.58400000  *   9.17900000  *
    94       N          4.76100000  *   1.97500000  *  10.20100000  *
    95       H          4.13900000  *   1.35300000  *  10.68800000  *
    96       H          4.77400000  *   1.98800000  *   9.17900000  *
    97      Tv         11.14400000  *   0.00000000  *   0.00000000  *
    98      Tv          0.00000000  *  11.14400000  *   0.00000000  *
    99      Tv          0.00000000  *   0.00000000  *  14.05800000  *
 

                   THE SYSTEM IS A SOLID


                UNIT CELL TRANSLATION VECTORS

              X                Y              Z
    T1 =    11.1440000      0.0000000      0.0000000
    T2 =     0.0000000     11.1440000      0.0000000
    T3 =     0.0000000      0.0000000     14.0580000


          CARTESIAN COORDINATES 

    NO.       ATOM           X           Y           Z

     1         C          0.0000     -2.7860      1.5300
     2         O          0.0000     -2.7860      2.7880
     3         N          0.8110     -1.9750      0.8290
     4         H          1.4330     -1.3530      1.3160
     5         H          0.7980     -1.9880     -0.1930
     6         N         -0.8110     -3.5970      0.8290
     7         H         -1.4330     -4.2190      1.3160
     8         H         -0.7980     -3.5840     -0.1930
     9         C          5.5720     -2.7860      1.5300
    10         O          5.5720     -2.7860      2.7880
    11         N          6.3830     -1.9750      0.8290
    12         H          7.0050     -1.3530      1.3160
    13         H          6.3700     -1.9880     -0.1930
    14         N          4.7610     -3.5970      0.8290
    15         H          4.1390     -4.2190      1.3160
    16         H          4.7740     -3.5840     -0.1930
    17         C          0.0000      2.7860      1.5300
    18         O          0.0000      2.7860      2.7880
    19         N          0.8110      3.5970      0.8290
    20         H          1.4330      4.2190      1.3160
    21         H          0.7980      3.5840     -0.1930
    22         N         -0.8110      1.9750      0.8290
    23         H         -1.4330      1.3530      1.3160
    24         H         -0.7980      1.9880     -0.1930
    25         C          5.5720      2.7860      1.5300
    26         O          5.5720      2.7860      2.7880
    27         N          6.3830      3.5970      0.8290
    28         H          7.0050      4.2190      1.3160
    29         H          6.3700      3.5840     -0.1930
    30         N          4.7610      1.9750      0.8290
    31         H          4.1390      1.3530      1.3160
    32         H          4.7740      1.9880     -0.1930
    33         C          0.0000     -2.7860      6.2160
    34         O          0.0000     -2.7860      7.4740
    35         N          0.8110     -1.9750      5.5150
    36         H          1.4330     -1.3530      6.0020
    37         H          0.7980     -1.9880      4.4930
    38         N         -0.8110     -3.5970      5.5150
    39         H         -1.4330     -4.2190      6.0020
    40         H         -0.7980     -3.5840      4.4930
    41         C          5.5720     -2.7860      6.2160
    42         O          5.5720     -2.7860      7.4740
    43         N          6.3830     -1.9750      5.5150
    44         H          7.0050     -1.3530      6.0020
    45         H          6.3700     -1.9880      4.4930
    46         N          4.7610     -3.5970      5.5150
    47         H          4.1390     -4.2190      6.0020
    48         H          4.7740     -3.5840      4.4930
    49         C          0.0000      2.7860      6.2160
    50         O          0.0000      2.7860      7.4740
    51         N          0.8110      3.5970      5.5150
    52         H          1.4330      4.2190      6.0020
    53         H          0.7980      3.5840      4.4930
    54         N         -0.8110      1.9750      5.5150
    55         H         -1.4330      1.3530      6.0020
    56         H         -0.7980      1.9880      4.4930
    57         C          5.5720      2.7860      6.2160
    58         O          5.5720      2.7860      7.4740
    59         N          6.3830      3.5970      5.5150
    60         H          7.0050      4.2190      6.0020
    61         H          6.3700      3.5840      4.4930
    62         N          4.7610      1.9750      5.5150
    63         H          4.1390      1.3530      6.0020
    64         H          4.7740      1.9880      4.4930
    65         C          0.0000     -2.7860     10.9020
    66         O          0.0000     -2.7860     12.1600
    67         N          0.8110     -1.9750     10.2010
    68         H          1.4330     -1.3530     10.6880
    69         H          0.7980     -1.9880      9.1790
    70         N         -0.8110     -3.5970     10.2010
    71         H         -1.4330     -4.2190     10.6880
    72         H         -0.7980     -3.5840      9.1790
    73         C          5.5720     -2.7860     10.9020
    74         O          5.5720     -2.7860     12.1600
    75         N          6.3830     -1.9750     10.2010
    76         H          7.0050     -1.3530     10.6880
    77         H          6.3700     -1.9880      9.1790
    78         N          4.7610     -3.5970     10.2010
    79         H          4.1390     -4.2190     10.6880
    80         H          4.7740     -3.5840      9.1790
    81         C          0.0000      2.7860     10.9020
    82         O          0.0000      2.7860     12.1600
    83         N          0.8110      3.5970     10.2010
    84         H          1.4330      4.2190     10.6880
    85         H          0.7980      3.5840      9.1790
    86         N         -0.8110      1.9750     10.2010
    87         H         -1.4330      1.3530     10.6880
    88         H         -0.7980      1.9880      9.1790
    89         C          5.5720      2.7860     10.9020
    90         O          5.5720      2.7860     12.1600
    91         N          6.3830      3.5970     10.2010
    92         H          7.0050      4.2190     10.6880
    93         H          6.3700      3.5840      9.1790
    94         N          4.7610      1.9750     10.2010
    95         H          4.1390      1.3530     10.6880
    96         H          4.7740      1.9880      9.1790

 General Reference for PM7:
 "Optimization of Parameters for Semiempirical Methods VI: More Modifications to the 
 NDDO Approximations and Re-optimization of Parameters", J. J. P. Stewart, J. Mol. Mod., 1:32, 19 (2013)
 https://link.springer.com/article/10.1007/s00894-012-1667-x

           Empirical Formula: C12 H48 N24 O12  =    96 atoms



      RHF CALCULATION, NO. OF DOUBLY OCCUPIED LEVELS = 144


          Geometry optimization using L-BFGS
   1 a, b, c, alpha, beta, gamma:  5.572  5.572  4.686  90.00  90.00  90.00 Vol:  145.49 Density: 0.685 HoF:   -66.159 Grad: 102.74
 CYCLE:     1 TIME:   4.016 TIME LEFT:  2.00D  GRAD.:   355.918 HEAT: -793.9057
   2 a, b, c, alpha, beta, gamma:  5.572  5.572  4.686  90.00  90.00  90.00 Vol:  145.48 Density: 0.685 HoF:   -66.263 Grad:  99.46
 CYCLE:     2 TIME:   3.770 TIME LEFT:  2.00D  GRAD.:   344.555 HEAT: -795.1545
   3 a, b, c, alpha, beta, gamma:  5.578  5.577  4.684  90.00  90.00  89.97 Vol:  145.73 Density: 0.684 HoF:   -67.359 Grad:  68.71
 CYCLE:     3 TIME:   3.977 TIME LEFT:  2.00D  GRAD.:   238.020 HEAT: -808.3126
   4 a, b, c, alpha, beta, gamma:  5.572  5.572  4.686  90.00  90.00  90.00 Vol:  145.48 Density: 0.685 HoF:   -66.263 Grad:  99.64
 CYCLE:     4 TIME:   3.918 TIME LEFT:  2.00D  GRAD.:   345.173 HEAT: -795.1550
   5 a, b, c, alpha, beta, gamma:  5.578  5.577  4.684  90.00  90.00  89.97 Vol:  145.73 Density: 0.684 HoF:   -67.354 Grad:  68.99
 CYCLE:     5 TIME:   3.918 TIME LEFT:  2.00D  GRAD.:   238.999 HEAT: -808.2479
   6 a, b, c, alpha, beta, gamma:  5.574  5.573  4.685  89.99  90.00  89.96 Vol:  145.53 Density: 0.685 HoF:   -68.042 Grad:  18.01
 CYCLE:     6 TIME:   3.988 TIME LEFT:  2.00D  GRAD.:    62.391 HEAT: -816.5071
   7 a, b, c, alpha, beta, gamma:  5.571  5.570  4.684  89.99  89.99  89.95 Vol:  145.36 Density: 0.686 HoF:   -68.139 Grad:  17.94
 CYCLE:     7 TIME:   3.812 TIME LEFT:  2.00D  GRAD.:    62.162 HEAT: -817.6673
   8 a, b, c, alpha, beta, gamma:  5.524  5.518  4.679  89.92  89.95  89.67 Vol:  142.62 Density: 0.699 HoF:   -68.217 Grad:  61.83
 CYCLE:     8 TIME:   4.008 TIME LEFT:  2.00D  GRAD.:   214.198 HEAT: -818.5993
   9 a, b, c, alpha, beta, gamma:  5.536  5.531  4.680  89.93  89.97  89.71 Vol:  143.29 Density: 0.696 HoF:   -68.681 Grad:  29.12
 CYCLE:     9 TIME:   3.949 TIME LEFT:  2.00D  GRAD.:   100.888 HEAT: -824.1777
  10 a, b, c, alpha, beta, gamma:  5.535  5.529  4.678  89.92  89.97  89.66 Vol:  143.18 Density: 0.697 HoF:   -68.861 Grad:  15.80
 CYCLE:    10 TIME:   3.938 TIME LEFT:  2.00D  GRAD.:    54.742 HEAT: -826.3262
  11 a, b, c, alpha, beta, gamma:  5.525  5.516  4.675  89.87  89.98  89.49 Vol:  142.45 Density: 0.700 HoF:   -69.059 Grad:  20.22
 CYCLE:    11 TIME:   3.988 TIME LEFT:  2.00D  GRAD.:    70.053 HEAT: -828.7076
  12 a, b, c, alpha, beta, gamma:  5.511  5.499  4.670  89.79  90.00  89.29 Vol:  141.54 Density: 0.705 HoF:   -69.202 Grad:  26.86
 CYCLE:    12 TIME:   4.000 TIME LEFT:  2.00D  GRAD.:    93.033 HEAT: -830.4276
  13 a, b, c, alpha, beta, gamma:  5.468  5.459  4.659  89.55  90.11  88.72 Vol:  139.04 Density: 0.717 HoF:   -69.455 Grad:  35.09
 CYCLE:    13 TIME:   4.078 TIME LEFT:  2.00D  GRAD.:   121.546 HEAT: -833.4550
  14 a, b, c, alpha, beta, gamma:  5.421  5.408  4.646  89.17  90.32  88.00 Vol:  136.12 Density: 0.733 HoF:   -69.467 Grad:  39.55
 CYCLE:    14 TIME:   4.109 TIME LEFT:  2.00D  GRAD.:   137.014 HEAT: -833.6028
  15 a, b, c, alpha, beta, gamma:  5.374  5.349  4.631  88.67  90.62  87.11 Vol:  132.90 Density: 0.750 HoF:   -69.023 Grad:  46.07
 CYCLE:    15 TIME:   4.254 TIME LEFT:  2.00D  GRAD.:   159.601 HEAT: -828.2736
  16 a, b, c, alpha, beta, gamma:  5.322  5.281  4.614  87.96  91.02  86.01 Vol:  129.26 Density: 0.771 HoF:   -66.671 Grad: 101.11
 CYCLE:    16 TIME:   4.363 TIME LEFT:  2.00D  GRAD.:   350.269 HEAT: -800.0492
  17 a, b, c, alpha, beta, gamma:  5.390  5.357  4.633  88.56  90.71  87.17 Vol:  133.56 Density: 0.747 HoF:   -69.437 Grad:  65.11
 CYCLE:    17 TIME:   4.223 TIME LEFT:  2.00D  GRAD.:   225.564 HEAT: -833.2481
  18 a, b, c, alpha, beta, gamma:  5.340  5.274  4.614  87.71  91.39  85.80 Vol:  129.43 Density: 0.770 HoF:   -69.065 Grad:  55.26
 CYCLE:    18 TIME:   4.398 TIME LEFT:  2.00D  GRAD.:   191.426 HEAT: -828.7777
  19 a, b, c, alpha, beta, gamma:  5.270  5.178  4.591  86.85  92.15  84.01 Vol:  124.27 Density: 0.802 HoF:   -66.554 Grad:  59.99
 CYCLE:    19 TIME:   4.590 TIME LEFT:  2.00D  GRAD.:   207.797 HEAT: -798.6434
  20 a, b, c, alpha, beta, gamma:  5.235  5.083  4.576  86.06  92.87  82.38 Vol:  120.17 Density: 0.830 HoF:   -66.238 Grad:  92.49
 CYCLE:    20 TIME:   4.676 TIME LEFT:  2.00D  GRAD.:   320.410 HEAT: -794.8507
  21 a, b, c, alpha, beta, gamma:  5.159  4.991  4.554  85.29  93.54  80.29 Vol:  114.85 Density: 0.868 HoF:   -65.676 Grad: 137.02
 CYCLE:    21 TIME:   4.727 TIME LEFT:  2.00D  GRAD.:   474.651 HEAT: -788.1171
  22 a, b, c, alpha, beta, gamma:  5.161  5.005  4.560  85.52  93.40  81.00 Vol:  115.65 Density: 0.862 HoF:   -71.388 Grad:  57.18
 CYCLE:    22 TIME:   4.754 TIME LEFT:  2.00D  GRAD.:   198.088 HEAT: -856.6512
  23 a, b, c, alpha, beta, gamma:  5.069  4.915  4.522  84.69  94.05  78.53 Vol:  109.48 Density: 0.911 HoF:   -70.462 Grad:  85.85
 CYCLE:    23 TIME:   4.766 TIME LEFT:  2.00D  GRAD.:   297.387 HEAT: -845.5500
  24 a, b, c, alpha, beta, gamma:  5.016  4.846  4.515  83.91  94.61  77.57 Vol:  105.97 Density: 0.941 HoF:   -71.032 Grad:  58.10
 CYCLE:    24 TIME:   4.797 TIME LEFT:  2.00D  GRAD.:   201.275 HEAT: -852.3789
  25 a, b, c, alpha, beta, gamma:  5.053  4.919  4.521  84.10  94.48  78.96 Vol:  109.17 Density: 0.913 HoF:   -72.570 Grad:  63.11
 CYCLE:    25 TIME:   4.805 TIME LEFT:  2.00D  GRAD.:   218.625 HEAT: -870.8407
  26 a, b, c, alpha, beta, gamma:  5.035  4.878  4.517  83.33  95.01  78.14 Vol:  107.14 Density: 0.931 HoF:   -72.662 Grad:  36.95
 CYCLE:    26 TIME:   4.805 TIME LEFT:  2.00D  GRAD.:   128.005 HEAT: -871.9401
  27 a, b, c, alpha, beta, gamma:  5.028  4.868  4.517  82.75  95.36  77.96 Vol:  106.44 Density: 0.937 HoF:   -72.562 Grad:  29.54
 CYCLE:    27 TIME:   4.723 TIME LEFT:  2.00D  GRAD.:   102.340 HEAT: -870.7451
  28 a, b, c, alpha, beta, gamma:  5.038  4.901  4.515  82.16  95.69  78.41 Vol:  107.27 Density: 0.930 HoF:   -72.757 Grad:  37.68
 CYCLE:    28 TIME:   4.773 TIME LEFT:  2.00D  GRAD.:   130.524 HEAT: -873.0851
  29 a, b, c, alpha, beta, gamma:  5.008  4.878  4.476  81.24  96.26  77.90 Vol:  104.55 Density: 0.954 HoF:   -71.951 Grad:  68.35
 CYCLE:    29 TIME:   4.965 TIME LEFT:  2.00D  GRAD.:   236.777 HEAT: -863.4075
  30 a, b, c, alpha, beta, gamma:  4.988  4.860  4.432  80.28  96.77  77.41 Vol:  102.00 Density: 0.978 HoF:   -70.644 Grad:  75.97
 CYCLE:    30 TIME:   4.906 TIME LEFT:  2.00D  GRAD.:   263.168 HEAT: -847.7336
  31 a, b, c, alpha, beta, gamma:  5.012  4.850  4.389  79.33  97.23  77.17 Vol:  100.68 Density: 0.990 HoF:   -69.336 Grad: 103.31
 CYCLE:    31 TIME:   5.012 TIME LEFT:  2.00D  GRAD.:   357.884 HEAT: -832.0265
  32 a, b, c, alpha, beta, gamma:  5.107  4.875  4.350  78.51  97.60  77.60 Vol:  101.90 Density: 0.979 HoF:   -70.318 Grad:  92.77
 CYCLE:    32 TIME:   5.008 TIME LEFT:  2.00D  GRAD.:   321.361 HEAT: -843.8203
  33 a, b, c, alpha, beta, gamma:  5.180  4.870  4.313  77.67  97.95  77.59 Vol:  101.85 Density: 0.979 HoF:   -69.514 Grad:  58.95
 CYCLE:    33 TIME:   5.141 TIME LEFT:  2.00D  GRAD.:   204.202 HEAT: -834.1635
  34 a, b, c, alpha, beta, gamma:  5.183  4.855  4.326  78.70  97.20  77.59 Vol:  102.65 Density: 0.972 HoF:   -71.840 Grad:  70.19
 CYCLE:    34 TIME:   5.066 TIME LEFT:  2.00D  GRAD.:   243.136 HEAT: -862.0827
  35 a, b, c, alpha, beta, gamma:  5.195  4.789  4.289  77.99  97.43  76.69 Vol:   99.80 Density: 0.999 HoF:   -69.969 Grad:  95.80
 CYCLE:    35 TIME:   5.016 TIME LEFT:  2.00D  GRAD.:   331.868 HEAT: -839.6303
  36 a, b, c, alpha, beta, gamma:  5.197  4.734  4.255  77.35  97.60  76.04 Vol:   97.22 Density: 1.026 HoF:   -68.853 Grad: 108.81
 CYCLE:    36 TIME:   5.121 TIME LEFT:  2.00D  GRAD.:   376.921 HEAT: -826.2383
  37 a, b, c, alpha, beta, gamma:  5.181  4.765  4.258  78.09  96.97  76.63 Vol:   98.48 Density: 1.013 HoF:   -72.114 Grad: 179.07
 CYCLE:    37 TIME:   5.043 TIME LEFT:  2.00D  GRAD.:   620.332 HEAT: -865.3671
  38 a, b, c, alpha, beta, gamma:  5.151  4.717  4.260  77.46  97.51  75.82 Vol:   96.07 Density: 1.038 HoF:   -69.621 Grad: 118.09
 CYCLE:    38 TIME:   5.164 TIME LEFT:  2.00D  GRAD.:   409.072 HEAT: -835.4572
  39 a, b, c, alpha, beta, gamma:  5.156  4.728  4.252  78.29  96.82  75.93 Vol:   96.90 Density: 1.029 HoF:   -72.607 Grad:  34.24
 CYCLE:    39 TIME:   5.105 TIME LEFT:  2.00D  GRAD.:   118.607 HEAT: -871.2891
  40 a, b, c, alpha, beta, gamma:  5.175  4.726  4.252  77.62  97.31  76.03 Vol:   96.80 Density: 1.030 HoF:   -71.927 Grad:  42.06
 CYCLE:    40 TIME:   5.074 TIME LEFT:  2.00D  GRAD.:   145.705 HEAT: -863.1286
  41 a, b, c, alpha, beta, gamma:  5.209  4.753  4.240  77.08  97.50  76.80 Vol:   97.77 Density: 1.020 HoF:   -71.773 Grad:  39.86
 CYCLE:    41 TIME:   5.121 TIME LEFT:  2.00D  GRAD.:   138.078 HEAT: -861.2721
  42 a, b, c, alpha, beta, gamma:  5.231  4.752  4.226  76.57  97.65  77.24 Vol:   97.75 Density: 1.020 HoF:   -70.617 Grad:  49.79
 CYCLE:    42 TIME:   5.133 TIME LEFT:  2.00D  GRAD.:   172.483 HEAT: -847.4040
  43 a, b, c, alpha, beta, gamma:  5.246  4.755  4.220  76.06  97.84  77.73 Vol:   97.85 Density: 1.019 HoF:   -69.526 Grad:  73.39
 CYCLE:    43 TIME:   5.211 TIME LEFT:  2.00D  GRAD.:   254.235 HEAT: -834.3132
  44 a, b, c, alpha, beta, gamma:  5.228  4.792  4.246  75.71  98.25  78.39 Vol:   98.85 Density: 1.009 HoF:   -57.323 Grad: 289.78
 CYCLE:    44 TIME:   5.367 TIME LEFT:  2.00D  GRAD.:  1003.816 HEAT: -687.8728
  45 a, b, c, alpha, beta, gamma:  5.220  4.756  4.251  75.15  98.40  78.47 Vol:   97.75 Density: 1.020 HoF:   -58.339 Grad: 305.96
 CYCLE:    45 TIME:   5.254 TIME LEFT:  2.00D  GRAD.:  1059.869 HEAT: -700.0683
  46 a, b, c, alpha, beta, gamma:  5.209  4.743  4.247  75.66  98.15  77.89 Vol:   97.30 Density: 1.025 HoF:   -59.687 Grad: 316.16
 CYCLE:    46 TIME:   5.328 TIME LEFT:  2.00D  GRAD.:  1095.221 HEAT: -716.2476
  47 a, b, c, alpha, beta, gamma:  5.195  4.724  4.233  76.25  97.91  77.38 Vol:   96.47 Density: 1.034 HoF:   -50.347 Grad: 247.20
 CYCLE:    47 TIME:   5.355 TIME LEFT:  2.00D  GRAD.:   856.311 HEAT: -604.1668
  48 a, b, c, alpha, beta, gamma:  5.194  4.739  4.247  75.70  98.17  77.96 Vol:   96.97 Density: 1.028 HoF:   -67.327 Grad: 183.84
 CYCLE:    48 TIME:   5.414 TIME LEFT:  2.00D  GRAD.:   636.853 HEAT: -807.9182
  49 a, b, c, alpha, beta, gamma:  5.139  4.737  4.253  76.37  98.07  77.70 Vol:   96.32 Density: 1.035 HoF:   -58.520 Grad: 238.78
 CYCLE:    49 TIME:   5.430 TIME LEFT:  2.00D  GRAD.:   827.158 HEAT: -702.2442
  50 a, b, c, alpha, beta, gamma:  5.142  4.747  4.257  75.89  98.29  78.25 Vol:   96.59 Density: 1.032 HoF:   -63.244 Grad: 189.92
 CYCLE:    50 TIME:   5.328 TIME LEFT:  2.00D  GRAD.:   657.911 HEAT: -758.9318
  51 a, b, c, alpha, beta, gamma:  5.149  4.750  4.261  75.39  98.50  78.76 Vol:   96.78 Density: 1.030 HoF:   -65.124 Grad: 165.38
 CYCLE:    51 TIME:   5.379 TIME LEFT:  2.00D  GRAD.:   572.892 HEAT: -781.4931
  52 a, b, c, alpha, beta, gamma:  5.049  4.652  4.274  74.46  99.08  78.83 Vol:   92.51 Density: 1.078 HoF:    80.441 Grad:1571.10
 CYCLE:    52 TIME:   5.547 TIME LEFT:  2.00D  GRAD.:  5442.463 HEAT:  965.2897
  53 a, b, c, alpha, beta, gamma:  5.134  4.736  4.266  75.25  98.56  78.52 Vol:   96.09 Density: 1.038 HoF:   -68.936 Grad: 159.73
 CYCLE:    53 TIME:   5.387 TIME LEFT:  2.00D  GRAD.:   553.328 HEAT: -827.2288
  54 a, b, c, alpha, beta, gamma:  5.120  4.728  4.263  75.73  98.37  78.00 Vol:   95.70 Density: 1.042 HoF:   -71.573 Grad: 112.78
 CYCLE:    54 TIME:   5.395 TIME LEFT:  2.00D  GRAD.:   390.697 HEAT: -858.8756
  55 a, b, c, alpha, beta, gamma:  5.107  4.724  4.272  75.22  98.61  78.55 Vol:   95.46 Density: 1.045 HoF:   -50.369 Grad: 582.33
 CYCLE:    55 TIME:   5.387 TIME LEFT:  2.00D  GRAD.:  2017.255 HEAT: -604.4257
  56 a, b, c, alpha, beta, gamma:  5.147  4.748  4.233  75.92  98.01  78.39 Vol:   96.34 Density: 1.035 HoF:   -53.899 Grad: 348.23
 CYCLE:    56 TIME:   5.551 TIME LEFT:  2.00D  GRAD.:  1206.312 HEAT: -646.7910
  57 a, b, c, alpha, beta, gamma:  5.104  4.746  4.219  76.62  97.94  78.56 Vol:   95.61 Density: 1.043 HoF:   -60.168 Grad: 227.38
 CYCLE:    57 TIME:   5.387 TIME LEFT:  2.00D  GRAD.:   787.682 HEAT: -722.0141
  58 a, b, c, alpha, beta, gamma:  5.111  4.744  4.222  76.11  98.14  79.06 Vol:   95.68 Density: 1.042 HoF:   -64.196 Grad: 190.24
 CYCLE:    58 TIME:   5.316 TIME LEFT:  2.00D  GRAD.:   659.004 HEAT: -770.3461


           HEAT OF FORMATION IS ESSENTIALLY STATIONARY


          CURRENT BEST VALUE OF HEAT OF FORMATION =   -873.085186
 
 MERS=(2,2,3)
 urea_cif

  C     0.04307465 +1  -2.71742320 +1   1.55027566 +1
  O     0.03987859 +1  -2.77726733 +1   2.76592803 +1
  N     0.94925560 +1  -1.94830350 +1   0.86619927 +1
  H     1.53563993 +1  -1.31336625 +1   1.36591187 +1
  H     0.89295022 +1  -1.82713692 +1  -0.12834913 +1
  N    -0.93043161 +1  -3.41556327 +1   0.80936599 +1
  H    -1.39332250 +1  -4.15398630 +1   1.31587237 +1
  H    -0.66778319 +1  -3.71427315 +1  -0.11473137 +1
  C     5.56434094 +1  -2.74880187 +1   1.53664408 +1
  O     5.65721400 +1  -2.85796786 +1   2.75824396 +1
  N     6.27473696 +1  -1.78468096 +1   0.82616857 +1
  H     7.09053467 +1  -1.39742900 +1   1.29412628 +1
  H     6.44963126 +1  -1.94137205 +1  -0.15301992 +1
  N     4.60980204 +1  -3.46131010 +1   0.83534868 +1
  H     4.11408481 +1  -4.18178276 +1   1.32907626 +1
  H     4.76288565 +1  -3.66978636 +1  -0.13357537 +1
  C     0.06094175 +1   2.75690672 +1   1.56528340 +1
  O    -0.06020601 +1   2.89640070 +1   2.77248871 +1
  N     0.90003446 +1   3.56006490 +1   0.85231482 +1
  H     1.44150772 +1   4.25697005 +1   1.32200815 +1
  H     1.01160486 +1   3.50685095 +1  -0.12732247 +1
  N    -0.66635938 +1   1.77545979 +1   0.89272009 +1
  H    -1.52026956 +1   1.46862911 +1   1.32917176 +1
  H    -0.71221214 +1   1.78267964 +1  -0.09052792 +1
  C     5.58179385 +1   2.75259655 +1   1.54796551 +1
  O     5.55362472 +1   2.81677154 +1   2.77737527 +1
  N     6.50108843 +1   3.50771520 +1   0.84844442 +1
  H     6.99478778 +1   4.22385198 +1   1.31642025 +1
  H     6.45104513 +1   3.60623911 +1  -0.13064656 +1
  N     4.67389378 +1   1.99664686 +1   0.84537453 +1
  H     4.03159290 +1   1.42220574 +1   1.33555199 +1
  H     4.87329571 +1   1.74422448 +1  -0.10988434 +1
  C     0.03898439 +1  -2.71175273 +1   6.22566268 +1
  O     0.05294394 +1  -2.77866177 +1   7.44517736 +1
  N     0.93992253 +1  -1.94778642 +1   5.52611309 +1
  H     1.54809496 +1  -1.33182779 +1   6.01944312 +1
  H     0.82738007 +1  -1.81849753 +1   4.53063992 +1
  N    -0.90664862 +1  -3.43097769 +1   5.49763573 +1
  H    -1.36590876 +1  -4.17491045 +1   5.97226244 +1
  H    -0.75445390 +1  -3.58289876 +1   4.51770124 +1
  C     5.55564204 +1  -2.73427966 +1   6.22140826 +1
  O     5.66051003 +1  -2.86508609 +1   7.44194171 +1
  N     6.27234860 +1  -1.76217277 +1   5.52919519 +1
  H     7.12480131 +1  -1.43997213 +1   5.96898372 +1
  H     6.35341031 +1  -1.84900970 +1   4.52629433 +1
  N     4.64428395 +1  -3.47754737 +1   5.51088299 +1
  H     4.13500669 +1  -4.18792912 +1   5.98455052 +1
  H     4.69576344 +1  -3.53577009 +1   4.51468362 +1
  C     0.06012536 +1   2.75760975 +1   6.21963914 +1
  O    -0.06840073 +1   2.88993948 +1   7.43369351 +1
  N     0.96461049 +1   3.49988022 +1   5.51276787 +1
  H     1.44181679 +1   4.24163312 +1   5.98255424 +1
  H     0.91228496 +1   3.56368909 +1   4.51086969 +1
  N    -0.65897482 +1   1.78649000 +1   5.52029631 +1
  H    -1.49697978 +1   1.45014090 +1   5.96623441 +1
  H    -0.75341348 +1   1.88688516 +1   4.52677338 +1
  C     5.57080649 +1   2.75049226 +1   6.22058325 +1
  O     5.55899647 +1   2.81021192 +1   7.44995762 +1
  N     6.51998142 +1   3.47215831 +1   5.50273219 +1
  H     6.97404436 +1   4.21646838 +1   5.97085679 +1
  H     6.37182671 +1   3.61943241 +1   4.52649840 +1
  N     4.67368099 +1   1.98811765 +1   5.52333716 +1
  H     4.04921536 +1   1.39468333 +1   6.00451753 +1
  H     4.78737826 +1   1.87096981 +1   4.52797020 +1
  C     0.00465312 +1  -2.68949338 +1  10.87569753 +1
  O    -0.03206786 +1  -2.72428576 +1  12.09121397 +1
  N     0.91142885 +1  -1.91790831 +1  10.19248537 +1
  H     1.56231114 +1  -1.36129124 +1  10.68933118 +1
  H     0.86667646 +1  -1.84475915 +1   9.19172640 +1
  N    -0.95199696 +1  -3.39426579 +1  10.14800524 +1
  H    -1.37594934 +1  -4.15512090 +1  10.65200877 +1
  H    -0.73907123 +1  -3.65139319 +1   9.20249477 +1
  C     5.53901465 +1  -2.70186546 +1  10.88406705 +1
  O     5.57735149 +1  -2.77755475 +1  12.12035124 +1
  N     6.28623170 +1  -1.76901081 +1  10.19664919 +1
  H     7.12550379 +1  -1.42076017 +1  10.64958599 +1
  H     6.37844376 +1  -1.84066674 +1   9.19047798 +1
  N     4.63148828 +1  -3.45886325 +1  10.18498534 +1
  H     4.13073959 +1  -4.17787668 +1  10.67202565 +1
  H     4.69566408 +1  -3.55563889 +1   9.19098470 +1
  C     0.03538216 +1   2.79534263 +1  10.85137679 +1
  O    -0.12784061 +1   2.97429307 +1  12.05352491 +1
  N     0.92917026 +1   3.54965315 +1  10.14864436 +1
  H     1.46120739 +1   4.23133588 +1  10.64190886 +1
  H     0.95965343 +1   3.55898265 +1   9.15242079 +1
  N    -0.67419102 +1   1.79889484 +1  10.17760387 +1
  H    -1.49120468 +1   1.44985329 +1  10.64686872 +1
  H    -0.75879190 +1   1.84517092 +1   9.18501068 +1
  C     5.53805346 +1   2.79011601 +1  10.88669998 +1
  O     5.49368446 +1   2.88377677 +1  12.09223288 +1
  N     6.48225689 +1   3.51701797 +1  10.15966770 +1
  H     6.96650288 +1   4.22079879 +1  10.63833676 +1
  H     6.42438253 +1   3.59426224 +1   9.18110698 +1
  N     4.65233771 +1   1.99975667 +1  10.18426811 +1
  H     4.05065111 +1   1.39796374 +1  10.68769611 +1
  H     4.78955142 +1   1.83991134 +1   9.19832848 +1
 Tv    10.02857367 +1   0.97558518 +1   0.04713941 +1 
 Tv     1.02972201 +1   9.74706750 +1   0.10870058 +1 
 Tv    -1.59452038 +1   1.87826665 +1  13.32010800 +1 
 
 

 -------------------------------------------------------------------------------
 MERS=(2,2,3)
 urea_cif



     HERBERTS TEST WAS SATISFIED IN BFGS                      
     SCF FIELD WAS ACHIEVED                                   


                              PM7 CALCULATION
                                                       MOPAC2016 (Version: 21.329L)
                                                       Sat Feb  5 17:48:47 2022




          FINAL HEAT OF FORMATION =       -873.08519 KCAL/MOL =   -3652.98842 KJ/MOL
          H.o.F. per unit cell    =        -72.75710 KCAL, for 12 unit cells, unit cell = C1 H4 N2 O1



          GRADIENT NORM           =        130.52353          =       13.32150 PER ATOM
          IONIZATION POTENTIAL    =         10.238895 EV
          HOMO LUMO ENERGIES (EV) =        -10.239  0.716
          NO. OF FILLED LEVELS    =        144
          MOLECULAR WEIGHT        =        720.6648         POINT GROUP:  C1  

          VOLUME OF UNIT CELL     =        107.271 CUBIC ANGSTROMS

          DENSITY                 =          0.930 GRAMS/CC
                              A   =          5.038 ANGSTROMS
                              B   =          4.901 ANGSTROMS
                              C   =          4.515 ANGSTROMS
                            ALPHA =         82.159 DEGREES
                            BETA  =         95.689 DEGREES
                            GAMMA =         78.411 DEGREES

          VOLUME OF CLUSTER       =       1287.25575 ANGSTROMS**3 =  775.203 CM**3/MOLE
 
           Pressure required to constrain translation vectors
           Tv(  97)  Pressure:   0.72 GPa
           Tv(  98)  Pressure:   1.12 GPa
           Tv(  99)  Pressure:  -0.00 GPa


          SCF CALCULATIONS        =         60
 
          WALL-CLOCK TIME         =  4 MINUTES AND 44.551 SECONDS
          COMPUTATION TIME        = 13 MINUTES AND 54.086 SECONDS



       FINAL  POINT  AND  DERIVATIVES

   PARAMETER     ATOM    TYPE            VALUE        GRADIENT
      1          1  C    CARTESIAN X     0.043075     -0.556087  KCAL/ANGSTROM
      2          1  C    CARTESIAN Y    -2.717423     -6.271119  KCAL/ANGSTROM
      3          1  C    CARTESIAN Z     1.550276     12.329262  KCAL/ANGSTROM
      4          2  O    CARTESIAN X     0.039879     -1.218885  KCAL/ANGSTROM
      5          2  O    CARTESIAN Y    -2.777267      1.271874  KCAL/ANGSTROM
      6          2  O    CARTESIAN Z     2.765928    -23.900302  KCAL/ANGSTROM
      7          3  N    CARTESIAN X     0.949256     -3.457590  KCAL/ANGSTROM
      8          3  N    CARTESIAN Y    -1.948303     10.052140  KCAL/ANGSTROM
      9          3  N    CARTESIAN Z     0.866199      5.971574  KCAL/ANGSTROM
     10          4  H    CARTESIAN X     1.535640      0.245384  KCAL/ANGSTROM
     11          4  H    CARTESIAN Y    -1.313366     -3.187339  KCAL/ANGSTROM
     12          4  H    CARTESIAN Z     1.365912     -0.812313  KCAL/ANGSTROM
     13          5  H    CARTESIAN X     0.892950      1.322495  KCAL/ANGSTROM
     14          5  H    CARTESIAN Y    -1.827137     -5.670794  KCAL/ANGSTROM
     15          5  H    CARTESIAN Z    -0.128349     -2.550867  KCAL/ANGSTROM
     16          6  N    CARTESIAN X    -0.930432     -4.910584  KCAL/ANGSTROM
     17          6  N    CARTESIAN Y    -3.415563     -3.146789  KCAL/ANGSTROM
     18          6  N    CARTESIAN Z     0.809366      2.651204  KCAL/ANGSTROM
     19          7  H    CARTESIAN X    -1.393322      2.805250  KCAL/ANGSTROM
     20          7  H    CARTESIAN Y    -4.153986      2.285282  KCAL/ANGSTROM
     21          7  H    CARTESIAN Z     1.315872     -1.572755  KCAL/ANGSTROM
     22          8  H    CARTESIAN X    -0.667783      0.627806  KCAL/ANGSTROM
     23          8  H    CARTESIAN Y    -3.714273      1.426243  KCAL/ANGSTROM
     24          8  H    CARTESIAN Z    -0.114731      5.098457  KCAL/ANGSTROM
     25          9  C    CARTESIAN X     5.564341     -3.245722  KCAL/ANGSTROM
     26          9  C    CARTESIAN Y    -2.748802    -13.428854  KCAL/ANGSTROM
     27          9  C    CARTESIAN Z     1.536644    -10.027080  KCAL/ANGSTROM
     28         10  O    CARTESIAN X     5.657214     -1.924543  KCAL/ANGSTROM
     29         10  O    CARTESIAN Y    -2.857968      0.415325  KCAL/ANGSTROM
     30         10  O    CARTESIAN Z     2.758244      0.743720  KCAL/ANGSTROM
     31         11  N    CARTESIAN X     6.274737     -1.239225  KCAL/ANGSTROM
     32         11  N    CARTESIAN Y    -1.784681      2.381415  KCAL/ANGSTROM
     33         11  N    CARTESIAN Z     0.826169     -1.807419  KCAL/ANGSTROM
     34         12  H    CARTESIAN X     7.090535      2.079817  KCAL/ANGSTROM
     35         12  H    CARTESIAN Y    -1.397429     -0.935025  KCAL/ANGSTROM
     36         12  H    CARTESIAN Z     1.294126      1.626302  KCAL/ANGSTROM
     37         13  H    CARTESIAN X     6.449631     -1.824683  KCAL/ANGSTROM
     38         13  H    CARTESIAN Y    -1.941372     -1.061951  KCAL/ANGSTROM
     39         13  H    CARTESIAN Z    -0.153020     -0.204220  KCAL/ANGSTROM
     40         14  N    CARTESIAN X     4.609802      4.406476  KCAL/ANGSTROM
     41         14  N    CARTESIAN Y    -3.461310      7.014453  KCAL/ANGSTROM
     42         14  N    CARTESIAN Z     0.835349      8.395134  KCAL/ANGSTROM
     43         15  H    CARTESIAN X     4.114085      4.337000  KCAL/ANGSTROM
     44         15  H    CARTESIAN Y    -4.181783     -0.816362  KCAL/ANGSTROM
     45         15  H    CARTESIAN Z     1.329076     -1.260713  KCAL/ANGSTROM
     46         16  H    CARTESIAN X     4.762886      0.879119  KCAL/ANGSTROM
     47         16  H    CARTESIAN Y    -3.669786      0.617702  KCAL/ANGSTROM
     48         16  H    CARTESIAN Z    -0.133575      1.481849  KCAL/ANGSTROM
     49         17  C    CARTESIAN X     0.060942     17.740098  KCAL/ANGSTROM
     50         17  C    CARTESIAN Y     2.756907     16.501733  KCAL/ANGSTROM
     51         17  C    CARTESIAN Z     1.565283     11.645009  KCAL/ANGSTROM
     52         18  O    CARTESIAN X    -0.060206      2.566003  KCAL/ANGSTROM
     53         18  O    CARTESIAN Y     2.896401     -4.996774  KCAL/ANGSTROM
     54         18  O    CARTESIAN Z     2.772489    -26.296967  KCAL/ANGSTROM
     55         19  N    CARTESIAN X     0.900034    -13.113673  KCAL/ANGSTROM
     56         19  N    CARTESIAN Y     3.560065    -11.217557  KCAL/ANGSTROM
     57         19  N    CARTESIAN Z     0.852315      4.037836  KCAL/ANGSTROM
     58         20  H    CARTESIAN X     1.441508     -3.795862  KCAL/ANGSTROM
     59         20  H    CARTESIAN Y     4.256970      1.044286  KCAL/ANGSTROM
     60         20  H    CARTESIAN Z     1.322008     -0.569043  KCAL/ANGSTROM
     61         21  H    CARTESIAN X     1.011605     -5.310840  KCAL/ANGSTROM
     62         21  H    CARTESIAN Y     3.506851      6.795392  KCAL/ANGSTROM
     63         21  H    CARTESIAN Z    -0.127322      7.002251  KCAL/ANGSTROM
     64         22  N    CARTESIAN X    -0.666359     -6.974656  KCAL/ANGSTROM
     65         22  N    CARTESIAN Y     1.775460      4.790394  KCAL/ANGSTROM
     66         22  N    CARTESIAN Z     0.892720    -13.437255  KCAL/ANGSTROM
     67         23  H    CARTESIAN X    -1.520270      0.440872  KCAL/ANGSTROM
     68         23  H    CARTESIAN Y     1.468629      0.082449  KCAL/ANGSTROM
     69         23  H    CARTESIAN Z     1.329172      0.523326  KCAL/ANGSTROM
     70         24  H    CARTESIAN X    -0.712212     -1.444380  KCAL/ANGSTROM
     71         24  H    CARTESIAN Y     1.782680     -2.893344  KCAL/ANGSTROM
     72         24  H    CARTESIAN Z    -0.090528     11.613775  KCAL/ANGSTROM
     73         25  C    CARTESIAN X     5.581794      5.234975  KCAL/ANGSTROM
     74         25  C    CARTESIAN Y     2.752597      1.808155  KCAL/ANGSTROM
     75         25  C    CARTESIAN Z     1.547966    -19.270379  KCAL/ANGSTROM
     76         26  O    CARTESIAN X     5.553625      1.817858  KCAL/ANGSTROM
     77         26  O    CARTESIAN Y     2.816772     -0.805108  KCAL/ANGSTROM
     78         26  O    CARTESIAN Z     2.777375     -3.049894  KCAL/ANGSTROM
     79         27  N    CARTESIAN X     6.501088     -2.617541  KCAL/ANGSTROM
     80         27  N    CARTESIAN Y     3.507715      7.548461  KCAL/ANGSTROM
     81         27  N    CARTESIAN Z     0.848444      5.357568  KCAL/ANGSTROM
     82         28  H    CARTESIAN X     6.994788     -6.083258  KCAL/ANGSTROM
     83         28  H    CARTESIAN Y     4.223852     -6.217851  KCAL/ANGSTROM
     84         28  H    CARTESIAN Z     1.316420     -6.335719  KCAL/ANGSTROM
     85         29  H    CARTESIAN X     6.451045     -3.961600  KCAL/ANGSTROM
     86         29  H    CARTESIAN Y     3.606239      0.519820  KCAL/ANGSTROM
     87         29  H    CARTESIAN Z    -0.130647     10.528603  KCAL/ANGSTROM
     88         30  N    CARTESIAN X     4.673894     -3.895649  KCAL/ANGSTROM
     89         30  N    CARTESIAN Y     1.996647     -6.732616  KCAL/ANGSTROM
     90         30  N    CARTESIAN Z     0.845375     16.027247  KCAL/ANGSTROM
     91         31  H    CARTESIAN X     4.031593      4.373236  KCAL/ANGSTROM
     92         31  H    CARTESIAN Y     1.422206      4.332819  KCAL/ANGSTROM
     93         31  H    CARTESIAN Z     1.335552     -3.611813  KCAL/ANGSTROM
     94         32  H    CARTESIAN X     4.873296     -0.522690  KCAL/ANGSTROM
     95         32  H    CARTESIAN Y     1.744224      6.150876  KCAL/ANGSTROM
     96         32  H    CARTESIAN Z    -0.109884     -3.444584  KCAL/ANGSTROM
     97         33  C    CARTESIAN X     0.038984     -3.292399  KCAL/ANGSTROM
     98         33  C    CARTESIAN Y    -2.711753     -3.633728  KCAL/ANGSTROM
     99         33  C    CARTESIAN Z     6.225663      2.876802  KCAL/ANGSTROM
    100         34  O    CARTESIAN X     0.052944     -2.554544  KCAL/ANGSTROM
    101         34  O    CARTESIAN Y    -2.778662      1.466305  KCAL/ANGSTROM
    102         34  O    CARTESIAN Z     7.445177    -18.062236  KCAL/ANGSTROM
    103         35  N    CARTESIAN X     0.939923     -3.095863  KCAL/ANGSTROM
    104         35  N    CARTESIAN Y    -1.947786      7.244561  KCAL/ANGSTROM
    105         35  N    CARTESIAN Z     5.526113      6.861157  KCAL/ANGSTROM
    106         36  H    CARTESIAN X     1.548095      0.469799  KCAL/ANGSTROM
    107         36  H    CARTESIAN Y    -1.331828     -3.219880  KCAL/ANGSTROM
    108         36  H    CARTESIAN Z     6.019443     -0.468946  KCAL/ANGSTROM
    109         37  H    CARTESIAN X     0.827380      1.523658  KCAL/ANGSTROM
    110         37  H    CARTESIAN Y    -1.818498     -2.754313  KCAL/ANGSTROM
    111         37  H    CARTESIAN Z     4.530640      0.177344  KCAL/ANGSTROM
    112         38  N    CARTESIAN X    -0.906649      0.698635  KCAL/ANGSTROM
    113         38  N    CARTESIAN Y    -3.430978     -6.043351  KCAL/ANGSTROM
    114         38  N    CARTESIAN Z     5.497636      3.345984  KCAL/ANGSTROM
    115         39  H    CARTESIAN X    -1.365909      3.659304  KCAL/ANGSTROM
    116         39  H    CARTESIAN Y    -4.174910      5.077677  KCAL/ANGSTROM
    117         39  H    CARTESIAN Z     5.972262     -3.864504  KCAL/ANGSTROM
    118         40  H    CARTESIAN X    -0.754454      2.111948  KCAL/ANGSTROM
    119         40  H    CARTESIAN Y    -3.582899     -1.223716  KCAL/ANGSTROM
    120         40  H    CARTESIAN Z     4.517701      7.997180  KCAL/ANGSTROM
    121         41  C    CARTESIAN X     5.555642     -6.003862  KCAL/ANGSTROM
    122         41  C    CARTESIAN Y    -2.734280    -12.042994  KCAL/ANGSTROM
    123         41  C    CARTESIAN Z     6.221408     -8.961972  KCAL/ANGSTROM
    124         42  O    CARTESIAN X     5.660510     -1.521563  KCAL/ANGSTROM
    125         42  O    CARTESIAN Y    -2.865086      1.319337  KCAL/ANGSTROM
    126         42  O    CARTESIAN Z     7.441942     -1.346060  KCAL/ANGSTROM
    127         43  N    CARTESIAN X     6.272349      2.040783  KCAL/ANGSTROM
    128         43  N    CARTESIAN Y    -1.762173     -0.750976  KCAL/ANGSTROM
    129         43  N    CARTESIAN Z     5.529195     -2.297423  KCAL/ANGSTROM
    130         44  H    CARTESIAN X     7.124801      1.086437  KCAL/ANGSTROM
    131         44  H    CARTESIAN Y    -1.439972     -0.146179  KCAL/ANGSTROM
    132         44  H    CARTESIAN Z     5.968984      1.181202  KCAL/ANGSTROM
    133         45  H    CARTESIAN X     6.353410      0.600750  KCAL/ANGSTROM
    134         45  H    CARTESIAN Y    -1.849010      1.472864  KCAL/ANGSTROM
    135         45  H    CARTESIAN Z     4.526294      3.137993  KCAL/ANGSTROM
    136         46  N    CARTESIAN X     4.644284      8.266888  KCAL/ANGSTROM
    137         46  N    CARTESIAN Y    -3.477547     -0.192746  KCAL/ANGSTROM
    138         46  N    CARTESIAN Z     5.510883      2.885913  KCAL/ANGSTROM
    139         47  H    CARTESIAN X     4.135007      3.975623  KCAL/ANGSTROM
    140         47  H    CARTESIAN Y    -4.187929      2.962888  KCAL/ANGSTROM
    141         47  H    CARTESIAN Z     5.984551     -1.507442  KCAL/ANGSTROM
    142         48  H    CARTESIAN X     4.695763     -1.055208  KCAL/ANGSTROM
    143         48  H    CARTESIAN Y    -3.535770     -0.107819  KCAL/ANGSTROM
    144         48  H    CARTESIAN Z     4.514684      7.507400  KCAL/ANGSTROM
    145         49  C    CARTESIAN X     0.060125     16.079001  KCAL/ANGSTROM
    146         49  C    CARTESIAN Y     2.757610     18.191731  KCAL/ANGSTROM
    147         49  C    CARTESIAN Z     6.219639     -2.908478  KCAL/ANGSTROM
    148         50  O    CARTESIAN X    -0.068401      0.217290  KCAL/ANGSTROM
    149         50  O    CARTESIAN Y     2.889939     -2.701196  KCAL/ANGSTROM
    150         50  O    CARTESIAN Z     7.433694     -9.208104  KCAL/ANGSTROM
    151         51  N    CARTESIAN X     0.964610    -17.091190  KCAL/ANGSTROM
    152         51  N    CARTESIAN Y     3.499880     -7.718738  KCAL/ANGSTROM
    153         51  N    CARTESIAN Z     5.512768      7.222351  KCAL/ANGSTROM
    154         52  H    CARTESIAN X     1.441817     -3.330769  KCAL/ANGSTROM
    155         52  H    CARTESIAN Y     4.241633     -0.075434  KCAL/ANGSTROM
    156         52  H    CARTESIAN Z     5.982554      0.067542  KCAL/ANGSTROM
    157         53  H    CARTESIAN X     0.912285      1.721505  KCAL/ANGSTROM
    158         53  H    CARTESIAN Y     3.563689      1.074334  KCAL/ANGSTROM
    159         53  H    CARTESIAN Z     4.510870      5.355226  KCAL/ANGSTROM
    160         54  N    CARTESIAN X    -0.658975     -6.387664  KCAL/ANGSTROM
    161         54  N    CARTESIAN Y     1.786490      0.178733  KCAL/ANGSTROM
    162         54  N    CARTESIAN Z     5.520296     -6.892301  KCAL/ANGSTROM
    163         55  H    CARTESIAN X    -1.496980      0.917132  KCAL/ANGSTROM
    164         55  H    CARTESIAN Y     1.450141      0.588284  KCAL/ANGSTROM
    165         55  H    CARTESIAN Z     5.966234      0.021862  KCAL/ANGSTROM
    166         56  H    CARTESIAN X    -0.753413     -0.547702  KCAL/ANGSTROM
    167         56  H    CARTESIAN Y     1.886885     -1.971751  KCAL/ANGSTROM
    168         56  H    CARTESIAN Z     4.526773      7.938821  KCAL/ANGSTROM
    169         57  C    CARTESIAN X     5.570806      0.973415  KCAL/ANGSTROM
    170         57  C    CARTESIAN Y     2.750492      0.136967  KCAL/ANGSTROM
    171         57  C    CARTESIAN Z     6.220583    -16.047239  KCAL/ANGSTROM
    172         58  O    CARTESIAN X     5.558996      1.528654  KCAL/ANGSTROM
    173         58  O    CARTESIAN Y     2.810212     -0.244446  KCAL/ANGSTROM
    174         58  O    CARTESIAN Z     7.449958     -3.641879  KCAL/ANGSTROM
    175         59  N    CARTESIAN X     6.519981     -1.024199  KCAL/ANGSTROM
    176         59  N    CARTESIAN Y     3.472158     10.873679  KCAL/ANGSTROM
    177         59  N    CARTESIAN Z     5.502732      4.384141  KCAL/ANGSTROM
    178         60  H    CARTESIAN X     6.974044     -4.230193  KCAL/ANGSTROM
    179         60  H    CARTESIAN Y     4.216468     -6.674829  KCAL/ANGSTROM
    180         60  H    CARTESIAN Z     5.970857     -5.535466  KCAL/ANGSTROM
    181         61  H    CARTESIAN X     6.371827     -1.132199  KCAL/ANGSTROM
    182         61  H    CARTESIAN Y     3.619432     -0.623321  KCAL/ANGSTROM
    183         61  H    CARTESIAN Z     4.526498     11.162270  KCAL/ANGSTROM
    184         62  N    CARTESIAN X     4.673681      0.167619  KCAL/ANGSTROM
    185         62  N    CARTESIAN Y     1.988118     -8.835470  KCAL/ANGSTROM
    186         62  N    CARTESIAN Z     5.523337     11.544628  KCAL/ANGSTROM
    187         63  H    CARTESIAN X     4.049215      3.246320  KCAL/ANGSTROM
    188         63  H    CARTESIAN Y     1.394683      6.262572  KCAL/ANGSTROM
    189         63  H    CARTESIAN Z     6.004518     -3.763764  KCAL/ANGSTROM
    190         64  H    CARTESIAN X     4.787378      0.368558  KCAL/ANGSTROM
    191         64  H    CARTESIAN Y     1.870970      3.132789  KCAL/ANGSTROM
    192         64  H    CARTESIAN Z     4.527970      2.195696  KCAL/ANGSTROM
    193         65  C    CARTESIAN X     0.004653     -6.744645  KCAL/ANGSTROM
    194         65  C    CARTESIAN Y    -2.689493    -13.579658  KCAL/ANGSTROM
    195         65  C    CARTESIAN Z    10.875698      4.939393  KCAL/ANGSTROM
    196         66  O    CARTESIAN X    -0.032068      1.236261  KCAL/ANGSTROM
    197         66  O    CARTESIAN Y    -2.724286     -0.373314  KCAL/ANGSTROM
    198         66  O    CARTESIAN Z    12.091214    -26.578094  KCAL/ANGSTROM
    199         67  N    CARTESIAN X     0.911429     -1.572405  KCAL/ANGSTROM
    200         67  N    CARTESIAN Y    -1.917908     10.697013  KCAL/ANGSTROM
    201         67  N    CARTESIAN Z    10.192485      6.529459  KCAL/ANGSTROM
    202         68  H    CARTESIAN X     1.562311      0.184358  KCAL/ANGSTROM
    203         68  H    CARTESIAN Y    -1.361291     -5.209822  KCAL/ANGSTROM
    204         68  H    CARTESIAN Z    10.689331     -2.637228  KCAL/ANGSTROM
    205         69  H    CARTESIAN X     0.866676      0.887624  KCAL/ANGSTROM
    206         69  H    CARTESIAN Y    -1.844759     -1.297051  KCAL/ANGSTROM
    207         69  H    CARTESIAN Z     9.191726      3.177328  KCAL/ANGSTROM
    208         70  N    CARTESIAN X    -0.951997      3.827717  KCAL/ANGSTROM
    209         70  N    CARTESIAN Y    -3.394266      7.577313  KCAL/ANGSTROM
    210         70  N    CARTESIAN Z    10.148005      3.995304  KCAL/ANGSTROM
    211         71  H    CARTESIAN X    -1.375949      5.444652  KCAL/ANGSTROM
    212         71  H    CARTESIAN Y    -4.155121      2.964743  KCAL/ANGSTROM
    213         71  H    CARTESIAN Z    10.652009     -0.372263  KCAL/ANGSTROM
    214         72  H    CARTESIAN X    -0.739071      3.138446  KCAL/ANGSTROM
    215         72  H    CARTESIAN Y    -3.651393     -5.505671  KCAL/ANGSTROM
    216         72  H    CARTESIAN Z     9.202495     11.774728  KCAL/ANGSTROM
    217         73  C    CARTESIAN X     5.539015     -2.204545  KCAL/ANGSTROM
    218         73  C    CARTESIAN Y    -2.701865     -7.741762  KCAL/ANGSTROM
    219         73  C    CARTESIAN Z    10.884067    -18.412814  KCAL/ANGSTROM
    220         74  O    CARTESIAN X     5.577351      0.321815  KCAL/ANGSTROM
    221         74  O    CARTESIAN Y    -2.777555     -0.042646  KCAL/ANGSTROM
    222         74  O    CARTESIAN Z    12.120351      3.662853  KCAL/ANGSTROM
    223         75  N    CARTESIAN X     6.286232     -2.659542  KCAL/ANGSTROM
    224         75  N    CARTESIAN Y    -1.769011     -6.203998  KCAL/ANGSTROM
    225         75  N    CARTESIAN Z    10.196649      0.616750  KCAL/ANGSTROM
    226         76  H    CARTESIAN X     7.125504      2.861847  KCAL/ANGSTROM
    227         76  H    CARTESIAN Y    -1.420760      0.902642  KCAL/ANGSTROM
    228         76  H    CARTESIAN Z    10.649586      3.843774  KCAL/ANGSTROM
    229         77  H    CARTESIAN X     6.378444      1.590709  KCAL/ANGSTROM
    230         77  H    CARTESIAN Y    -1.840667      2.457509  KCAL/ANGSTROM
    231         77  H    CARTESIAN Z     9.190478      1.906938  KCAL/ANGSTROM
    232         78  N    CARTESIAN X     4.631488     12.417211  KCAL/ANGSTROM
    233         78  N    CARTESIAN Y    -3.458863      2.120105  KCAL/ANGSTROM
    234         78  N    CARTESIAN Z    10.184985      1.939843  KCAL/ANGSTROM
    235         79  H    CARTESIAN X     4.130740      1.881679  KCAL/ANGSTROM
    236         79  H    CARTESIAN Y    -4.177877     -0.553847  KCAL/ANGSTROM
    237         79  H    CARTESIAN Z    10.672026      2.989632  KCAL/ANGSTROM
    238         80  H    CARTESIAN X     4.695664     -2.467789  KCAL/ANGSTROM
    239         80  H    CARTESIAN Y    -3.555639     -0.089940  KCAL/ANGSTROM
    240         80  H    CARTESIAN Z     9.190985      7.435341  KCAL/ANGSTROM
    241         81  C    CARTESIAN X     0.035382     21.246205  KCAL/ANGSTROM
    242         81  C    CARTESIAN Y     2.795343     15.091309  KCAL/ANGSTROM
    243         81  C    CARTESIAN Z    10.851377     -8.203205  KCAL/ANGSTROM
    244         82  O    CARTESIAN X    -0.127841      0.864338  KCAL/ANGSTROM
    245         82  O    CARTESIAN Y     2.974293     -2.657986  KCAL/ANGSTROM
    246         82  O    CARTESIAN Z    12.053525     -6.143495  KCAL/ANGSTROM
    247         83  N    CARTESIAN X     0.929170    -15.931642  KCAL/ANGSTROM
    248         83  N    CARTESIAN Y     3.549653     -8.911157  KCAL/ANGSTROM
    249         83  N    CARTESIAN Z    10.148644      7.781981  KCAL/ANGSTROM
    250         84  H    CARTESIAN X     1.461207     -3.842394  KCAL/ANGSTROM
    251         84  H    CARTESIAN Y     4.231336     -1.460548  KCAL/ANGSTROM
    252         84  H    CARTESIAN Z    10.641909     -0.143651  KCAL/ANGSTROM
    253         85  H    CARTESIAN X     0.959653      1.266325  KCAL/ANGSTROM
    254         85  H    CARTESIAN Y     3.558983      2.635767  KCAL/ANGSTROM
    255         85  H    CARTESIAN Z     9.152421      7.604075  KCAL/ANGSTROM
    256         86  N    CARTESIAN X    -0.674191     -6.203588  KCAL/ANGSTROM
    257         86  N    CARTESIAN Y     1.798895     -0.724281  KCAL/ANGSTROM
    258         86  N    CARTESIAN Z    10.177604     -7.208040  KCAL/ANGSTROM
    259         87  H    CARTESIAN X    -1.491205      2.669014  KCAL/ANGSTROM
    260         87  H    CARTESIAN Y     1.449853     -0.692971  KCAL/ANGSTROM
    261         87  H    CARTESIAN Z    10.646869      1.196064  KCAL/ANGSTROM
    262         88  H    CARTESIAN X    -0.758792     -2.094738  KCAL/ANGSTROM
    263         88  H    CARTESIAN Y     1.845171     -0.623500  KCAL/ANGSTROM
    264         88  H    CARTESIAN Z     9.185011      9.251309  KCAL/ANGSTROM
    265         89  C    CARTESIAN X     5.538053      0.837693  KCAL/ANGSTROM
    266         89  C    CARTESIAN Y     2.790116      1.513577  KCAL/ANGSTROM
    267         89  C    CARTESIAN Z    10.886700     22.856031  KCAL/ANGSTROM
    268         90  O    CARTESIAN X     5.493684      4.327458  KCAL/ANGSTROM
    269         90  O    CARTESIAN Y     2.883777     -5.702042  KCAL/ANGSTROM
    270         90  O    CARTESIAN Z    12.092233    -32.941080  KCAL/ANGSTROM
    271         91  N    CARTESIAN X     6.482257      3.175888  KCAL/ANGSTROM
    272         91  N    CARTESIAN Y     3.517018     21.084325  KCAL/ANGSTROM
    273         91  N    CARTESIAN Z    10.159668     -6.316030  KCAL/ANGSTROM
    274         92  H    CARTESIAN X     6.966503     -8.232009  KCAL/ANGSTROM
    275         92  H    CARTESIAN Y     4.220799    -11.445824  KCAL/ANGSTROM
    276         92  H    CARTESIAN Z    10.638337     -4.350350  KCAL/ANGSTROM
    277         93  H    CARTESIAN X     6.424383      1.965041  KCAL/ANGSTROM
    278         93  H    CARTESIAN Y     3.594262     -1.413417  KCAL/ANGSTROM
    279         93  H    CARTESIAN Z     9.181107     16.246331  KCAL/ANGSTROM
    280         94  N    CARTESIAN X     4.652338     -3.257444  KCAL/ANGSTROM
    281         94  N    CARTESIAN Y     1.999757     -6.418078  KCAL/ANGSTROM
    282         94  N    CARTESIAN Z    10.184268      8.681427  KCAL/ANGSTROM
    283         95  H    CARTESIAN X     4.050651      2.543205  KCAL/ANGSTROM
    284         95  H    CARTESIAN Y     1.397964      5.500066  KCAL/ANGSTROM
    285         95  H    CARTESIAN Z    10.687696     -2.488099  KCAL/ANGSTROM
    286         96  H    CARTESIAN X     4.789551      1.363877  KCAL/ANGSTROM
    287         96  H    CARTESIAN Y     1.839911     -0.570597  KCAL/ANGSTROM
    288         96  H    CARTESIAN Z     9.198328      1.126452  KCAL/ANGSTROM
    289         97 Tv    CARTESIAN X    10.028574    -14.107483  KCAL/ANGSTROM
    290         97 Tv    CARTESIAN Y     0.975585      7.865184  KCAL/ANGSTROM
    291         97 Tv    CARTESIAN Z     0.047139     -4.393907  KCAL/ANGSTROM
    292         98 Tv    CARTESIAN X     1.029722     15.696283  KCAL/ANGSTROM
    293         98 Tv    CARTESIAN Y     9.747068    -22.909064  KCAL/ANGSTROM
    294         98 Tv    CARTESIAN Z     0.108701      1.355031  KCAL/ANGSTROM
    295         99 Tv    CARTESIAN X    -1.594520     18.401473  KCAL/ANGSTROM
    296         99 Tv    CARTESIAN Y     1.878267    -27.961552  KCAL/ANGSTROM
    297         99 Tv    CARTESIAN Z    13.320108      6.158398  KCAL/ANGSTROM




   ATOM   CHEMICAL          X               Y               Z
  NUMBER   SYMBOL      (ANGSTROMS)     (ANGSTROMS)     (ANGSTROMS)
 
     1       C          0.04307465  *  -2.71742320  *   1.55027566  *
     2       O          0.03987859  *  -2.77726733  *   2.76592803  *
     3       N          0.94925560  *  -1.94830350  *   0.86619927  *
     4       H          1.53563993  *  -1.31336625  *   1.36591187  *
     5       H          0.89295022  *  -1.82713692  *  -0.12834913  *
     6       N         -0.93043161  *  -3.41556327  *   0.80936599  *
     7       H         -1.39332250  *  -4.15398630  *   1.31587237  *
     8       H         -0.66778319  *  -3.71427315  *  -0.11473137  *
     9       C          5.56434094  *  -2.74880187  *   1.53664408  *
    10       O          5.65721400  *  -2.85796786  *   2.75824396  *
    11       N          6.27473696  *  -1.78468096  *   0.82616857  *
    12       H          7.09053467  *  -1.39742900  *   1.29412628  *
    13       H          6.44963126  *  -1.94137205  *  -0.15301992  *
    14       N          4.60980204  *  -3.46131010  *   0.83534868  *
    15       H          4.11408481  *  -4.18178276  *   1.32907626  *
    16       H          4.76288565  *  -3.66978636  *  -0.13357537  *
    17       C          0.06094175  *   2.75690672  *   1.56528340  *
    18       O         -0.06020601  *   2.89640070  *   2.77248871  *
    19       N          0.90003446  *   3.56006490  *   0.85231482  *
    20       H          1.44150772  *   4.25697005  *   1.32200815  *
    21       H          1.01160486  *   3.50685095  *  -0.12732247  *
    22       N         -0.66635938  *   1.77545979  *   0.89272009  *
    23       H         -1.52026956  *   1.46862911  *   1.32917176  *
    24       H         -0.71221214  *   1.78267964  *  -0.09052792  *
    25       C          5.58179385  *   2.75259655  *   1.54796551  *
    26       O          5.55362472  *   2.81677154  *   2.77737527  *
    27       N          6.50108843  *   3.50771520  *   0.84844442  *
    28       H          6.99478778  *   4.22385198  *   1.31642025  *
    29       H          6.45104513  *   3.60623911  *  -0.13064656  *
    30       N          4.67389378  *   1.99664686  *   0.84537453  *
    31       H          4.03159290  *   1.42220574  *   1.33555199  *
    32       H          4.87329571  *   1.74422448  *  -0.10988434  *
    33       C          0.03898439  *  -2.71175273  *   6.22566268  *
    34       O          0.05294394  *  -2.77866177  *   7.44517736  *
    35       N          0.93992253  *  -1.94778642  *   5.52611309  *
    36       H          1.54809496  *  -1.33182779  *   6.01944312  *
    37       H          0.82738007  *  -1.81849753  *   4.53063992  *
    38       N         -0.90664862  *  -3.43097769  *   5.49763573  *
    39       H         -1.36590876  *  -4.17491045  *   5.97226244  *
    40       H         -0.75445390  *  -3.58289876  *   4.51770124  *
    41       C          5.55564204  *  -2.73427966  *   6.22140826  *
    42       O          5.66051003  *  -2.86508609  *   7.44194171  *
    43       N          6.27234860  *  -1.76217277  *   5.52919519  *
    44       H          7.12480131  *  -1.43997213  *   5.96898372  *
    45       H          6.35341031  *  -1.84900970  *   4.52629433  *
    46       N          4.64428395  *  -3.47754737  *   5.51088299  *
    47       H          4.13500669  *  -4.18792912  *   5.98455052  *
    48       H          4.69576344  *  -3.53577009  *   4.51468362  *
    49       C          0.06012536  *   2.75760975  *   6.21963914  *
    50       O         -0.06840073  *   2.88993948  *   7.43369351  *
    51       N          0.96461049  *   3.49988022  *   5.51276787  *
    52       H          1.44181679  *   4.24163312  *   5.98255424  *
    53       H          0.91228496  *   3.56368909  *   4.51086969  *
    54       N         -0.65897482  *   1.78649000  *   5.52029631  *
    55       H         -1.49697978  *   1.45014090  *   5.96623441  *
    56       H         -0.75341348  *   1.88688516  *   4.52677338  *
    57       C          5.57080649  *   2.75049226  *   6.22058325  *
    58       O          5.55899647  *   2.81021192  *   7.44995762  *
    59       N          6.51998142  *   3.47215831  *   5.50273219  *
    60       H          6.97404436  *   4.21646838  *   5.97085679  *
    61       H          6.37182671  *   3.61943241  *   4.52649840  *
    62       N          4.67368099  *   1.98811765  *   5.52333716  *
    63       H          4.04921536  *   1.39468333  *   6.00451753  *
    64       H          4.78737826  *   1.87096981  *   4.52797020  *
    65       C          0.00465312  *  -2.68949338  *  10.87569753  *
    66       O         -0.03206786  *  -2.72428576  *  12.09121397  *
    67       N          0.91142885  *  -1.91790831  *  10.19248537  *
    68       H          1.56231114  *  -1.36129124  *  10.68933118  *
    69       H          0.86667646  *  -1.84475915  *   9.19172640  *
    70       N         -0.95199696  *  -3.39426579  *  10.14800524  *
    71       H         -1.37594934  *  -4.15512090  *  10.65200877  *
    72       H         -0.73907123  *  -3.65139319  *   9.20249477  *
    73       C          5.53901465  *  -2.70186546  *  10.88406705  *
    74       O          5.57735149  *  -2.77755475  *  12.12035124  *
    75       N          6.28623170  *  -1.76901081  *  10.19664919  *
    76       H          7.12550379  *  -1.42076017  *  10.64958599  *
    77       H          6.37844376  *  -1.84066674  *   9.19047798  *
    78       N          4.63148828  *  -3.45886325  *  10.18498534  *
    79       H          4.13073959  *  -4.17787668  *  10.67202565  *
    80       H          4.69566408  *  -3.55563889  *   9.19098470  *
    81       C          0.03538216  *   2.79534263  *  10.85137679  *
    82       O         -0.12784061  *   2.97429307  *  12.05352491  *
    83       N          0.92917026  *   3.54965315  *  10.14864436  *
    84       H          1.46120739  *   4.23133588  *  10.64190886  *
    85       H          0.95965343  *   3.55898265  *   9.15242079  *
    86       N         -0.67419102  *   1.79889484  *  10.17760387  *
    87       H         -1.49120468  *   1.44985329  *  10.64686872  *
    88       H         -0.75879190  *   1.84517092  *   9.18501068  *
    89       C          5.53805346  *   2.79011601  *  10.88669998  *
    90       O          5.49368446  *   2.88377677  *  12.09223288  *
    91       N          6.48225689  *   3.51701797  *  10.15966770  *
    92       H          6.96650288  *   4.22079879  *  10.63833676  *
    93       H          6.42438253  *   3.59426224  *   9.18110698  *
    94       N          4.65233771  *   1.99975667  *  10.18426811  *
    95       H          4.05065111  *   1.39796374  *  10.68769611  *
    96       H          4.78955142  *   1.83991134  *   9.19832848  *
    97      Tv         10.02857367  *   0.97558518  *   0.04713941  *
    98      Tv          1.02972201  *   9.74706750  *   0.10870058  *
    99      Tv         -1.59452038  *   1.87826665  *  13.32010800  *

                             CARTESIAN COORDINATES

   1    C        0.043074646    -2.717423198     1.550275659
   2    O        0.039878594    -2.777267327     2.765928025
   3    N        0.949255599    -1.948303496     0.866199270
   4    H        1.535639931    -1.313366251     1.365911870
   5    H        0.892950220    -1.827136924    -0.128349129
   6    N       -0.930431610    -3.415563266     0.809365986
   7    H       -1.393322499    -4.153986297     1.315872369
   8    H       -0.667783185    -3.714273146    -0.114731370
   9    C        5.564340941    -2.748801872     1.536644078
  10    O        5.657214001    -2.857967862     2.758243961
  11    N        6.274736962    -1.784680959     0.826168566
  12    H        7.090534666    -1.397428998     1.294126282
  13    H        6.449631261    -1.941372048    -0.153019924
  14    N        4.609802041    -3.461310105     0.835348677
  15    H        4.114084806    -4.181782762     1.329076256
  16    H        4.762885655    -3.669786365    -0.133575373
  17    C        0.060941751     2.756906718     1.565283404
  18    O       -0.060206006     2.896400696     2.772488712
  19    N        0.900034463     3.560064900     0.852314820
  20    H        1.441507722     4.256970052     1.322008154
  21    H        1.011604858     3.506850953    -0.127322473
  22    N       -0.666359380     1.775459788     0.892720090
  23    H       -1.520269564     1.468629114     1.329171761
  24    H       -0.712212139     1.782679636    -0.090527922
  25    C        5.581793846     2.752596550     1.547965509
  26    O        5.553624724     2.816771538     2.777375268
  27    N        6.501088427     3.507715201     0.848444425
  28    H        6.994787781     4.223851980     1.316420246
  29    H        6.451045133     3.606239105    -0.130646562
  30    N        4.673893782     1.996646857     0.845374533
  31    H        4.031592904     1.422205741     1.335551988
  32    H        4.873295707     1.744224481    -0.109884344
  33    C        0.038984394    -2.711752732     6.225662675
  34    O        0.052943935    -2.778661765     7.445177358
  35    N        0.939922533    -1.947786421     5.526113086
  36    H        1.548094964    -1.331827795     6.019443119
  37    H        0.827380071    -1.818497528     4.530639923
  38    N       -0.906648617    -3.430977695     5.497635725
  39    H       -1.365908760    -4.174910447     5.972262440
  40    H       -0.754453897    -3.582898764     4.517701236
  41    C        5.555642038    -2.734279660     6.221408259
  42    O        5.660510026    -2.865086086     7.441941710
  43    N        6.272348599    -1.762172775     5.529195188
  44    H        7.124801313    -1.439972130     5.968983718
  45    H        6.353410306    -1.849009702     4.526294328
  46    N        4.644283951    -3.477547370     5.510882990
  47    H        4.135006692    -4.187929123     5.984550515
  48    H        4.695763435    -3.535770089     4.514683620
  49    C        0.060125361     2.757609747     6.219639141
  50    O       -0.068400729     2.889939475     7.433693514
  51    N        0.964610485     3.499880215     5.512767869
  52    H        1.441816794     4.241633121     5.982554243
  53    H        0.912284965     3.563689089     4.510869692
  54    N       -0.658974817     1.786490003     5.520296306
  55    H       -1.496979778     1.450140895     5.966234411
  56    H       -0.753413481     1.886885155     4.526773383
  57    C        5.570806490     2.750492259     6.220583249
  58    O        5.558996474     2.810211924     7.449957618
  59    N        6.519981419     3.472158311     5.502732194
  60    H        6.974044362     4.216468382     5.970856793
  61    H        6.371826709     3.619432408     4.526498404
  62    N        4.673680989     1.988117653     5.523337157
  63    H        4.049215357     1.394683326     6.004517534
  64    H        4.787378259     1.870969815     4.527970203
  65    C        0.004653122    -2.689493376    10.875697531
  66    O       -0.032067864    -2.724285757    12.091213967
  67    N        0.911428849    -1.917908314    10.192485374
  68    H        1.562311142    -1.361291237    10.689331182
  69    H        0.866676464    -1.844759152     9.191726398
  70    N       -0.951996960    -3.394265790    10.148005241
  71    H       -1.375949340    -4.155120904    10.652008766
  72    H       -0.739071233    -3.651393190     9.202494772
  73    C        5.539014647    -2.701865456    10.884067045
  74    O        5.577351494    -2.777554746    12.120351244
  75    N        6.286231697    -1.769010814    10.196649188
  76    H        7.125503788    -1.420760167    10.649585994
  77    H        6.378443755    -1.840666737     9.190477976
  78    N        4.631488283    -3.458863247    10.184985336
  79    H        4.130739588    -4.177876684    10.672025648
  80    H        4.695664081    -3.555638889     9.190984702
  81    C        0.035382160     2.795342628    10.851376790
  82    O       -0.127840615     2.974293074    12.053524912
  83    N        0.929170257     3.549653151    10.148644360
  84    H        1.461207390     4.231335883    10.641908863
  85    H        0.959653429     3.558982653     9.152420787
  86    N       -0.674191021     1.798894842    10.177603872
  87    H       -1.491204685     1.449853293    10.646868718
  88    H       -0.758791903     1.845170919     9.185010677
  89    C        5.538053461     2.790116013    10.886699976
  90    O        5.493684459     2.883776770    12.092232882
  91    N        6.482256891     3.517017969    10.159667697
  92    H        6.966502879     4.220798790    10.638336761
  93    H        6.424382532     3.594262241     9.181106982
  94    N        4.652337709     1.999756666    10.184268109
  95    H        4.050651113     1.397963744    10.687696113
  96    H        4.789551416     1.839911339     9.198328478


           Empirical Formula: C12 H48 N24 O12  =    96 atoms



                  EIGENVALUES  
 -39.07306 -38.95542 -38.93101 -38.70461 -38.67398 -38.57968 -38.39807 -38.31924
 -38.28915 -38.12420 -38.08560 -37.97856 -36.71457 -36.55827 -36.52885 -36.28751
 -36.21001 -36.16276 -36.12995 -35.97633 -35.91134 -35.73196 -35.59559 -35.52812
 -30.58338 -30.55468 -30.46251 -30.37014 -30.18243 -30.14203 -30.09402 -30.06566
 -30.06049 -30.02868 -30.00055 -29.99055 -22.54394 -22.44014 -22.37567 -22.35504
 -22.30005 -22.26044 -22.23720 -22.19469 -22.14395 -22.07599 -22.03414 -21.92411
 -19.24728 -19.15448 -19.13503 -19.09742 -19.06767 -19.01373 -18.95122 -18.93779
 -18.89534 -18.86136 -18.81755 -18.81106 -18.77385 -18.74481 -18.69399 -18.63571
 -18.61891 -18.54938 -18.50610 -18.46819 -18.40237 -18.34877 -18.30452 -18.17785
 -16.65265 -16.63120 -16.62701 -16.61285 -16.58297 -16.50823 -16.42544 -16.37537
 -16.30096 -16.24676 -16.12649 -16.07324 -15.82233 -15.73091 -15.70976 -15.64073
 -15.61643 -15.55887 -15.53498 -15.52722 -15.46997 -15.40696 -15.38441 -15.29534
 -15.26847 -15.17356 -15.02629 -14.94721 -14.92771 -14.86649 -14.76179 -14.67263
 -14.58469 -14.51686 -14.48299 -14.28800 -12.17261 -12.14256 -12.01978 -11.98626
 -11.93734 -11.89846 -11.85262 -11.79951 -11.73987 -11.65387 -11.57592 -11.50295
 -11.43085 -11.36380 -11.33300 -11.27377 -11.22165 -11.21283 -11.14276 -11.12701
 -11.09254 -11.05563 -10.96665 -10.88656 -10.87705 -10.83040 -10.82028 -10.74860
 -10.73975 -10.70935 -10.66492 -10.62738 -10.56002 -10.47273 -10.44347 -10.23890
   0.71614   0.76871   0.80037   0.88617   0.89815   0.91285   0.91770   0.94443
   0.99967   1.00670   1.07463   1.18221   1.32203   1.34357   1.43029   1.46191
   1.50513   1.54084   1.57520   1.62345   1.65568   1.75685   1.81620   1.96259
   2.73953   2.79572   2.84017   2.87545   2.89465   2.93389   2.95588   2.99799
   3.07632   3.09428   3.17071   3.30453   3.91664   3.97079   3.98855   4.02812
   4.08434   4.09371   4.13850   4.17363   4.18646   4.29330   4.36470   4.41203
   5.05882   5.09571   5.11750   5.18962   5.19373   5.25861   5.31548   5.34886
   5.39475   5.40462   5.41373   5.42442   5.44028   5.46791   5.47981   5.48573
   5.49401   5.49907   5.51558   5.61876   5.68211   5.73401   5.75848   5.95140
   6.13596   6.14660   6.18712   6.31434   6.36056   6.36731   6.39388   6.42442
   6.46078   6.52968   6.54383   6.55993   6.57805   6.58137   6.64186   6.64370
   6.65609   6.67921   6.69034   6.74920   6.77664   6.80250   6.86396   7.01305


              NET ATOMIC CHARGES AND DIPOLE CONTRIBUTIONS

  ATOM NO.   TYPE          CHARGE      No. of ELECS.   s-Pop       p-Pop       
    1          C           0.743625        3.2564     1.02749     2.22888
    2          O          -0.677237        6.6772     1.87357     4.80366
    3          N          -0.634809        5.6348     1.53297     4.10184
    4          H           0.326779        0.6732     0.67322
    5          H           0.322563        0.6774     0.67744
    6          N          -0.683425        5.6834     1.60147     4.08195
    7          H           0.306792        0.6932     0.69321
    8          H           0.303818        0.6962     0.69618
    9          C           0.726090        3.2739     1.03574     2.23817
   10          O          -0.678357        6.6784     1.88068     4.79768
   11          N          -0.631091        5.6311     1.58308     4.04801
   12          H           0.326304        0.6737     0.67370
   13          H           0.302007        0.6980     0.69799
   14          N          -0.660514        5.6605     1.56386     4.09666
   15          H           0.314859        0.6851     0.68514
   16          H           0.303362        0.6966     0.69664
   17          C           0.760183        3.2398     1.01736     2.22245
   18          O          -0.706704        6.7067     1.87439     4.83231
   19          N          -0.678097        5.6781     1.52771     4.15039
   20          H           0.320181        0.6798     0.67982
   21          H           0.324584        0.6754     0.67542
   22          N          -0.643278        5.6433     1.56320     4.08008
   23          H           0.319859        0.6801     0.68014
   24          H           0.305688        0.6943     0.69431
   25          C           0.752575        3.2474     1.01968     2.22775
   26          O          -0.688309        6.6883     1.88062     4.80769
   27          N          -0.684385        5.6844     1.54082     4.14357
   28          H           0.318448        0.6816     0.68155
   29          H           0.309784        0.6902     0.69022
   30          N          -0.645931        5.6459     1.54226     4.10367
   31          H           0.325814        0.6742     0.67419
   32          H           0.319092        0.6809     0.68091
   33          C           0.746154        3.2538     1.02228     2.23156
   34          O          -0.684362        6.6844     1.87598     4.80839
   35          N          -0.656044        5.6560     1.53900     4.11705
   36          H           0.320794        0.6792     0.67921
   37          H           0.342108        0.6579     0.65789
   38          N          -0.701931        5.7019     1.57083     4.13110
   39          H           0.305899        0.6941     0.69410
   40          H           0.331015        0.6690     0.66898
   41          C           0.735739        3.2643     1.02873     2.23553
   42          O          -0.697337        6.6973     1.88087     4.81647
   43          N          -0.651768        5.6518     1.58010     4.07167
   44          H           0.320263        0.6797     0.67974
   45          H           0.324692        0.6753     0.67531
   46          N          -0.685358        5.6854     1.54212     4.14324
   47          H           0.313703        0.6863     0.68630
   48          H           0.337334        0.6627     0.66267
   49          C           0.735378        3.2646     1.02709     2.23753
   50          O          -0.698221        6.6982     1.87912     4.81910
   51          N          -0.681486        5.6815     1.54549     4.13600
   52          H           0.309571        0.6904     0.69043
   53          H           0.341997        0.6580     0.65800
   54          N          -0.653525        5.6535     1.57784     4.07569
   55          H           0.316029        0.6840     0.68397
   56          H           0.326676        0.6733     0.67332
   57          C           0.741185        3.2588     1.02319     2.23562
   58          O          -0.693187        6.6932     1.88043     4.81276
   59          N          -0.692488        5.6925     1.56688     4.12561
   60          H           0.304368        0.6956     0.69563
   61          H           0.328336        0.6717     0.67166
   62          N          -0.647667        5.6477     1.53241     4.11525
   63          H           0.319847        0.6802     0.68015
   64          H           0.341831        0.6582     0.65817
   65          C           0.723142        3.2769     1.02615     2.25071
   66          O          -0.653767        6.6538     1.87795     4.77582
   67          N          -0.662278        5.6623     1.53032     4.13196
   68          H           0.318915        0.6811     0.68108
   69          H           0.342271        0.6577     0.65773
   70          N          -0.686751        5.6868     1.59250     4.09425
   71          H           0.296032        0.7040     0.70397
   72          H           0.321854        0.6781     0.67815
   73          C           0.723874        3.2761     1.02806     2.24807
   74          O          -0.705235        6.7052     1.88740     4.81784
   75          N          -0.648756        5.6488     1.57057     4.07819
   76          H           0.322727        0.6773     0.67727
   77          H           0.333773        0.6662     0.66623
   78          N          -0.684400        5.6844     1.54731     4.13709
   79          H           0.309685        0.6903     0.69031
   80          H           0.339183        0.6608     0.66082
   81          C           0.714500        3.2855     1.02698     2.25852
   82          O          -0.642510        6.6425     1.88431     4.75820
   83          N          -0.697717        5.6977     1.53421     4.16351
   84          H           0.310947        0.6891     0.68905
   85          H           0.340305        0.6597     0.65969
   86          N          -0.670246        5.6702     1.57201     4.09824
   87          H           0.313496        0.6865     0.68650
   88          H           0.324351        0.6756     0.67565
   89          C           0.728993        3.2710     1.02300     2.24801
   90          O          -0.632571        6.6326     1.87583     4.75674
   91          N          -0.714318        5.7143     1.54930     4.16501
   92          H           0.303994        0.6960     0.69601
   93          H           0.331928        0.6681     0.66807
   94          N          -0.676685        5.6767     1.54105     4.13564
   95          H           0.315213        0.6848     0.68479
   96          H           0.340234        0.6598     0.65977


          ATOMIC ORBITAL ELECTRON POPULATIONS

     Atom    s        px        py        pz   
    1  C   1.02749   0.70629   0.76189   0.76070
    2  O   1.87357   1.77531   1.76311   1.26524
    3  N   1.53297   1.42080   1.47627   1.20477
    4  H   0.67322
    5  H   0.67744
    6  N   1.60147   1.41377   1.44898   1.21920
    7  H   0.69321
    8  H   0.69618
    9  C   1.03574   0.73626   0.72994   0.77198
   10  O   1.88068   1.76977   1.76658   1.26133
   11  N   1.58308   1.41815   1.42778   1.20208
   12  H   0.67370
   13  H   0.69799
   14  N   1.56386   1.43076   1.46491   1.20098
   15  H   0.68514
   16  H   0.69664
   17  C   1.01736   0.74807   0.71371   0.76067
   18  O   1.87439   1.77646   1.78014   1.27571
   19  N   1.52771   1.50540   1.43011   1.21488
   20  H   0.67982
   21  H   0.67542
   22  N   1.56320   1.38507   1.47492   1.22009
   23  H   0.68014
   24  H   0.69431
   25  C   1.01968   0.70682   0.76073   0.76019
   26  O   1.88062   1.77966   1.77793   1.25010
   27  N   1.54082   1.47964   1.46020   1.20373
   28  H   0.68155
   29  H   0.69022
   30  N   1.54226   1.37449   1.50688   1.22231
   31  H   0.67419
   32  H   0.68091
   33  C   1.02228   0.71028   0.76157   0.75971
   34  O   1.87598   1.77924   1.76765   1.26150
   35  N   1.53900   1.40937   1.49225   1.21543
   36  H   0.67921
   37  H   0.65789
   38  N   1.57083   1.46053   1.45367   1.21689
   39  H   0.69410
   40  H   0.66898
   41  C   1.02873   0.74161   0.72588   0.76804
   42  O   1.88087   1.77582   1.77567   1.26498
   43  N   1.58010   1.39158   1.45775   1.22235
   44  H   0.67974
   45  H   0.67531
   46  N   1.54212   1.47154   1.45817   1.21353
   47  H   0.68630
   48  H   0.66267
   49  C   1.02709   0.74082   0.72848   0.76823
   50  O   1.87912   1.77198   1.77546   1.27167
   51  N   1.54549   1.48153   1.43692   1.21755
   52  H   0.69043
   53  H   0.65800
   54  N   1.57784   1.39505   1.45986   1.22078
   55  H   0.68397
   56  H   0.67332
   57  C   1.02319   0.71251   0.76154   0.76158
   58  O   1.88043   1.78533   1.77289   1.25455
   59  N   1.56688   1.45893   1.45016   1.21652
   60  H   0.69563
   61  H   0.67166
   62  N   1.53241   1.40159   1.49817   1.21549
   63  H   0.68015
   64  H   0.65817
   65  C   1.02615   0.71991   0.76363   0.76716
   66  O   1.87795   1.77205   1.75415   1.24962
   67  N   1.53032   1.40389   1.51244   1.21563
   68  H   0.68108
   69  H   0.65773
   70  N   1.59250   1.44196   1.42958   1.22271
   71  H   0.70397
   72  H   0.67815
   73  C   1.02806   0.74509   0.73218   0.77080
   74  O   1.88740   1.78897   1.78544   1.24342
   75  N   1.57057   1.38484   1.46597   1.22738
   76  H   0.67727
   77  H   0.66623
   78  N   1.54731   1.47186   1.44634   1.21889
   79  H   0.69031
   80  H   0.66082
   81  C   1.02698   0.75191   0.73019   0.77643
   82  O   1.88431   1.75141   1.75533   1.25145
   83  N   1.53421   1.48244   1.46382   1.21725
   84  H   0.68905
   85  H   0.65969
   86  N   1.57201   1.41205   1.46167   1.22452
   87  H   0.68650
   88  H   0.67565
   89  C   1.02300   0.71961   0.76360   0.76480
   90  O   1.87583   1.76207   1.74902   1.24565
   91  N   1.54930   1.47329   1.47597   1.21575
   92  H   0.69601
   93  H   0.66807
   94  N   1.54105   1.42375   1.49269   1.21920
   95  H   0.68479
   96  H   0.65977

 **********************
 *                    *
 * JOB ENDED NORMALLY *
 *                    *
 **********************



 TOTAL JOB TIME:           284.56 SECONDS

 == MOPAC DONE ==
