 argument  1 = /lustre/ukt/milias/work/projects/open-collection/theoretical_chemistry/projects/adsorbate_on_surface/on_gold/Au30pyramide/Au30/Au30.geopt_ecp_revpbe-d3bj_restart.nw



============================== echo of input deck ==============================
echo

restart Au30

permanent_dir /lustre/ukt/milias/scratch/Au33pyramide

driver
  maxiter 999
  xyz Au33geometry
end

task dft optimize

================================================================================


                                         
                                         


             Northwest Computational Chemistry Package (NWChem) 7.2.0
             --------------------------------------------------------


                    Environmental Molecular Sciences Laboratory
                       Pacific Northwest National Laboratory
                                Richland, WA 99352

                              Copyright (c) 1994-2022
                       Pacific Northwest National Laboratory
                            Battelle Memorial Institute

             NWChem is an open-source computational chemistry package
                        distributed under the terms of the
                      Educational Community License (ECL) 2.0
             A copy of the license is included with this distribution
                              in the LICENSE.TXT file

                                  ACKNOWLEDGMENT
                                  --------------

            This software and its documentation were developed at the
            EMSL at Pacific Northwest National Laboratory, a multiprogram
            national laboratory, operated for the U.S. Department of Energy
            by Battelle under Contract Number DE-AC05-76RL01830. Support
            for this work was provided by the Department of Energy Office
            of Biological and Environmental Research, Office of Basic
            Energy Sciences, and the Office of Advanced Scientific Computing.


           Job information
           ---------------

    hostname        = lxbk1141
    program         = /lustre/ukt/milias/work/software/nwchem/nwchem-7.2.0_gnu_openmpi_openblas/bin/LINUX64/nwchem
    date            = Tue Aug 29 00:19:03 2023

    compiled        = Sun_Jul_02_11:55:06_2023
    source          = /lustre/ukt/milias/work/software/nwchem/nwchem-7.2.0_gnu_openmpi_openblas
    nwchem branch   = 7.2.0
    nwchem revision = v7.2.0-beta1-192-gd0d141fdfb
    ga revision     = 5.8.0
    use scalapack   = F
    input           = /lustre/ukt/milias/work/projects/open-collection/theoretical_chemistry/projects/adsorbate_on_surface/on_gold/Au30pyramide/Au30/Au30.geopt_ecp_revpbe-d3bj_restart.nw
    prefix          = Au30.
    data base       = /lustre/ukt/milias/scratch/Au33pyramide/Au30.db
    status          = restart
    nproc           =      140
    time left       =     -1s



           Memory information
           ------------------

    heap     =   26214398 doubles =    200.0 Mbytes
    stack    =   26214395 doubles =    200.0 Mbytes
    global   =   52428800 doubles =    400.0 Mbytes (distinct from heap & stack)
    total    =  104857593 doubles =    800.0 Mbytes
    verify   = yes
    hardfail = no 


           Directory information
           ---------------------

  0 permanent = /lustre/ukt/milias/scratch/Au33pyramide
  0 scratch   = .


           Previous task information
           -------------------------

    Theory    = dft                             
    Operation = optimize                      
    Status    = fail                          
    Qmmm      = F
    Ignore    = F


           Geometries in the database
           --------------------------

       Name                              Natoms  Last Modified
       --------------------------------  ------  ------------------------
    1  geometry                              30  Tue Aug 29 00:11:12 2023  
    2  driverinitial                         30  Tue Aug 29 00:13:33 2023  

  The geometry named "geometry" is the default for restart



           Basis sets in the database
           --------------------------

       Name                              Natoms  Last Modified
        --------------------------------  ------  ------------------------
    1  ao basis                               0  Sat Aug 26 11:28:04 2023  
    2  ecp basis                              1  Sat Aug 26 11:28:04 2023  

  The basis set named "ao basis" is the default AO basis for restart




                                NWChem Input Module
                                -------------------




                           NWChem Geometry Optimization
                           ----------------------------




                                     Au30 ecp


 maximum gradient threshold         (gmax) =   0.000450
 rms gradient threshold             (grms) =   0.000300
 maximum cartesian step threshold   (xmax) =   0.001800
 rms cartesian step threshold       (xrms) =   0.001200
 fixed trust radius                (trust) =   0.300000
 maximum step size to saddle      (sadstp) =   0.100000
 energy precision                  (eprec) =   5.0D-06
 maximum number of steps          (nptopt) =  999
 initial hessian option           (inhess) =    0
 line search option               (linopt) =    1
 hessian update option            (modupd) =    1
 saddle point option              (modsad) =    0
 initial eigen-mode to follow     (moddir) =    0
 initial variable to follow       (vardir) =    0
 follow first negative mode     (firstneg) =    T
 apply conjugacy                    (opcg) =    F
 source of zmatrix                         =           


          -------------------
          Energy Minimization
          -------------------


 Using old Hessian from previous optimization

          --------
          Step   0
          --------

                                 NWChem DFT Module
                                 -----------------


                                     Au30 ecp



  Caching 1-el integrals 

 WARNING : Found     2 linear dependencies 
 S eigenvalue threshold:     1.00000E-05
 Smallest S eigenvalue :     6.51764E-07
 Largest  S eigenvalue :     8.61540E-06

   Time after variat. SCF:     15.7
   Time prior to 1st pass:     15.7

           Memory utilization after 1st SCF pass: 
           Heap Space remaining (MW):       26.08            26082310
          Stack Space remaining (MW):       26.21            26206780

   convergence    iter        energy       DeltaE   RMS-Dens  Diis-err    time
 ---------------- ----- ----------------- --------- --------- ---------  ------
 d= 0,ls=0.0,diis     1  -4081.5037622629 -2.16D+04  8.44D-05  6.97D-06   524.9
 d= 0,ls=0.0,diis     2  -4081.5036877933  7.45D-05  7.52D-05  4.18D-04   644.4
 d= 0,ls=0.0,diis     3  -4081.5037628998 -7.51D-05  8.42D-06  3.96D-06   795.6
 d= 0,ls=0.0,diis     4  -4081.5037634807 -5.81D-07  1.91D-06  2.31D-07   956.8


         Total DFT energy =    -4081.503763480738
      One electron energy =   -42189.858056978483
           Coulomb energy =    20970.268905640434
    Exchange-Corr. energy =     -384.213791257882
 Nuclear repulsion energy =    17522.802692843561

    Dispersion correction =       -0.503513728366

 Numeric. integr. density =      569.999996081889

     Total iterative time =    941.1s




                         DFT ENERGY GRADIENTS

    atom               coordinates                        gradient
                 x          y          z           x          y          z
   1 Au      1.764932   5.155233  -0.316883    0.000033  -0.000037   0.000038
   2 Au     -5.534760   7.277006   0.976931   -0.000017  -0.000051  -0.000002
   3 Au     -7.293408   2.331462   1.294286   -0.000046   0.000028  -0.000001
   4 Au      5.540944   1.322392   6.915018   -0.000023   0.000017  -0.000027
   5 Au     -0.621215   8.659877   2.879514    0.000033  -0.000004   0.000091
   6 Au     -0.562919  -9.210263   0.106881    0.000041  -0.000042  -0.000006
   7 Au     -8.546491  -2.862059   1.521160    0.000012  -0.000088  -0.000012
   8 Au      4.912105   1.432193   1.762194   -0.000044  -0.000019   0.000014
   9 Au      3.112470  -3.340752  -5.960959   -0.000008   0.000008  -0.000021
  10 Au     -1.207666  -0.082511  -5.311750   -0.000014  -0.000024  -0.000031
  11 Au     -4.017142  -1.336907   3.598858    0.000071  -0.000040   0.000045
  12 Au     -0.124497   0.037770   0.022657    0.000113  -0.000103  -0.000002
  13 Au      4.004421   1.428469  -3.347972   -0.000021  -0.000048   0.000032
  14 Au     -3.514574   3.761447  -2.374897   -0.000033   0.000103   0.000063
  15 Au     -5.010716  -1.340634  -1.991416    0.000025  -0.000011  -0.000043
  16 Au     -1.577283   8.655925  -2.502348   -0.000008   0.000015  -0.000119
  17 Au      4.367930  -7.778392   2.024556    0.000019   0.000000  -0.000010
  18 Au      4.297372  -3.236941  -0.761386   -0.000016  -0.000023  -0.000004
  19 Au     -2.482171   3.766478   3.433675   -0.000026   0.000154  -0.000063
  20 Au     -0.445388  12.916386   0.069930   -0.000010  -0.000035   0.000016
  21 Au      3.404018  -7.781542  -3.394373    0.000006   0.000013   0.000022
  22 Au      2.820276   1.311632  -8.402818   -0.000002  -0.000000  -0.000005
  23 Au      0.045725  -4.730541   2.880657   -0.000041   0.000017  -0.000035
  24 Au      0.695779  -0.074538   5.403755    0.000007   0.000001   0.000048
  25 Au     -0.948722  -4.734395  -2.713474   -0.000022   0.000016   0.000035
  26 Au      0.554245   5.088855  -5.577677    0.000005   0.000052  -0.000026
  27 Au     -4.704821  -6.184232   0.840771   -0.000039   0.000058   0.000006
  28 Au      3.655359 -12.213938  -0.641016   -0.000006   0.000046   0.000003
  29 Au      2.439956   5.096588   5.038175    0.000012   0.000034  -0.000005
  30 Au      4.976242  -3.334068   4.527952   -0.000002  -0.000037  -0.000001


@ Step       Energy      Delta E   Gmax     Grms     Xrms     Xmax   Walltime
@ ---- ---------------- -------- -------- -------- -------- -------- --------
@    0   -4081.50376348  0.0D+00  0.00015  0.00004  0.00000  0.00000   1044.1
                                     ok       ok       ok       ok  


                                 NWChem DFT Module
                                 -----------------


                                     Au30 ecp



  Caching 1-el integrals 

 WARNING : Found     2 linear dependencies 
 S eigenvalue threshold:     1.00000E-05
 Smallest S eigenvalue :     6.51745E-07
 Largest  S eigenvalue :     8.61466E-06

   Time after variat. SCF:   1049.1
   Time prior to 1st pass:   1049.1

           Memory utilization after 1st SCF pass: 
           Heap Space remaining (MW):       26.08            26082310
          Stack Space remaining (MW):       26.21            26206780

   convergence    iter        energy       DeltaE   RMS-Dens  Diis-err    time
 ---------------- ----- ----------------- --------- --------- ---------  ------
 d= 0,ls=0.0,diis     1  -4081.5037635008 -2.16D+04  2.10D-05  7.53D-05  1124.8
 d= 0,ls=0.0,diis     2  -4081.5037640649 -5.64D-07  1.63D-05  7.53D-07  1229.5
 d= 0,ls=0.0,diis     3  -4081.5037621758  1.89D-06  1.51D-05  1.34D-05  1403.1
 d= 0,ls=0.0,diis     4  -4081.5037639179 -1.74D-06  7.08D-06  1.54D-06  1573.7
 d= 0,ls=0.0,diis     5  -4081.5037640599 -1.42D-07  3.40D-06  6.12D-07  1723.4


         Total DFT energy =    -4081.503764059857
      One electron energy =   -42190.479004298264
           Coulomb energy =    20970.582509920805
    Exchange-Corr. energy =     -384.214187297113
 Nuclear repulsion energy =    17523.110447147785

    Dispersion correction =       -0.503529533072

 Numeric. integr. density =      569.999996040054

     Total iterative time =    674.4s


 Line search: 
     step= 1.00 grad=-8.5D-07 hess= 2.7D-07 energy=  -4081.503764 mode=accept  
 new step= 1.00                   predicted energy=  -4081.503764

          --------
          Step   1
          --------

                                 NWChem DFT Module
                                 -----------------


                                     Au30 ecp




  The DFT is already converged 

         Total DFT energy =  -4081.503764059857



                         DFT ENERGY GRADIENTS

    atom               coordinates                        gradient
                 x          y          z           x          y          z
   1 Au      1.764802   5.155323  -0.316760    0.000011  -0.000018   0.000047
   2 Au     -5.534331   7.276142   0.978036    0.000000  -0.000043   0.000000
   3 Au     -7.293658   2.331170   1.294152   -0.000036  -0.000018  -0.000006
   4 Au      5.540968   1.322696   6.915023   -0.000039   0.000025  -0.000017
   5 Au     -0.620806   8.659193   2.878854    0.000046  -0.000001   0.000020
   6 Au     -0.563590  -9.209918   0.107234    0.000026  -0.000029   0.000001
   7 Au     -8.547054  -2.860888   1.520955   -0.000007  -0.000027  -0.000006
   8 Au      4.912897   1.432951   1.761611   -0.000034   0.000007  -0.000009
   9 Au      3.113194  -3.340876  -5.960581   -0.000003  -0.000016  -0.000009
  10 Au     -1.207027  -0.082479  -5.311647   -0.000008  -0.000015  -0.000022
  11 Au     -4.017341  -1.336580   3.598434    0.000070   0.000019   0.000021
  12 Au     -0.125032   0.038313   0.022574    0.000057  -0.000092   0.000010
  13 Au      4.004582   1.429253  -3.348048   -0.000033  -0.000011   0.000022
  14 Au     -3.514851   3.760992  -2.375272   -0.000026   0.000087   0.000060
  15 Au     -5.010759  -1.340346  -1.991550    0.000029   0.000033  -0.000023
  16 Au     -1.578186   8.654957  -2.501786   -0.000007  -0.000002  -0.000065
  17 Au      4.367423  -7.778162   2.024173    0.000008  -0.000008  -0.000040
  18 Au      4.297666  -3.236826  -0.761415   -0.000007  -0.000061  -0.000006
  19 Au     -2.482040   3.765362   3.434676   -0.000024   0.000076  -0.000047
  20 Au     -0.446147  12.915648   0.069705   -0.000015  -0.000067   0.000020
  21 Au      3.403838  -7.781723  -3.393983    0.000007   0.000018   0.000034
  22 Au      2.821122   1.311807  -8.402804    0.000005   0.000020  -0.000007
  23 Au      0.045778  -4.730119   2.880629   -0.000031   0.000025  -0.000026
  24 Au      0.696346  -0.074798   5.403039    0.000003   0.000006   0.000024
  25 Au     -0.948463  -4.734150  -2.713363   -0.000013   0.000014   0.000031
  26 Au      0.554255   5.088470  -5.577564    0.000010   0.000024  -0.000014
  27 Au     -4.705243  -6.183978   0.840471   -0.000012   0.000016  -0.000005
  28 Au      3.654514 -12.214208  -0.640677    0.000001   0.000038   0.000001
  29 Au      2.440116   5.096274   5.038264    0.000013   0.000015  -0.000006
  30 Au      4.977026  -3.333499   4.527621    0.000008  -0.000014   0.000015


  Step       Energy      Delta E   Gmax     Grms     Xrms     Xmax   Walltime
  ---- ---------------- -------- -------- -------- -------- -------- --------
@    1   -4081.50376406 -5.8D-07  0.00009  0.00003  0.00049  0.00117   1810.6
                                     ok       ok       ok       ok  


      ----------------------
      Optimization converged
      ----------------------


  Step       Energy      Delta E   Gmax     Grms     Xrms     Xmax   Walltime
  ---- ---------------- -------- -------- -------- -------- -------- --------
@    1   -4081.50376406 -5.8D-07  0.00009  0.00003  0.00049  0.00117   1810.9
                                     ok       ok       ok       ok  



                         Geometry "geometry" -> "geometry"
                         ---------------------------------

 Output coordinates in angstroms (scale by  1.889725989 to convert to a.u.)

  No.       Tag          Charge          X              Y              Z
 ---- ---------------- ---------- -------------- -------------- --------------
    1 Au                  79.0000     0.93389328     2.72807975    -0.16762213
    2 Au                  79.0000    -2.92864212     3.85036870     0.51755450
    3 Au                  79.0000    -3.85963784     1.23360205     0.68483582
    4 Au                  79.0000     2.93215445     0.69994038     3.65927279
    5 Au                  79.0000    -0.32851623     4.58224806     1.52342409
    6 Au                  79.0000    -0.29823927    -4.87367899     0.05674591
    7 Au                  79.0000    -4.52290659    -1.51391690     0.80485495
    8 Au                  79.0000     2.59979314     0.75828482     0.93220453
    9 Au                  79.0000     1.64743157    -1.76791557    -3.15420399
   10 Au                  79.0000    -0.63873108    -0.04364609    -2.81080267
   11 Au                  79.0000    -2.12588549    -0.70728774     1.90420922
   12 Au                  79.0000    -0.06616386     0.02027426     0.01194587
   13 Au                  79.0000     2.11913378     0.75632795    -1.77171104
   14 Au                  79.0000    -1.85997894     1.99023148    -1.25694010
   15 Au                  79.0000    -2.65157964    -0.70928055    -1.05388299
   16 Au                  79.0000    -0.83514003     4.58000615    -1.32388844
   17 Au                  79.0000     2.31114066    -4.11602630     1.07114630
   18 Au                  79.0000     2.27422717    -1.71285455    -0.40292341
   19 Au                  79.0000    -1.31343895     1.99254406     1.81755224
   20 Au                  79.0000    -0.23609066     6.83466695     0.03688649
   21 Au                  79.0000     1.80123385    -4.11791087    -1.79601880
   22 Au                  79.0000     1.49287353     0.69417850    -4.44657289
   23 Au                  79.0000     0.02422447    -2.50307142     1.52436357
   24 Au                  79.0000     0.36849050    -0.03958133     2.85916514
   25 Au                  79.0000    -0.50190525    -2.50520430    -1.43584993
   26 Au                  79.0000     0.29329894     2.69270263    -2.95151996
   27 Au                  79.0000    -2.48990767    -3.27242027     0.44475802
   28 Au                  79.0000     1.93388549    -6.46348120    -0.33903190
   29 Au                  79.0000     1.29125406     2.69683233     2.66613467
   30 Au                  79.0000     2.63372870    -1.76401202     2.39591414

      Atomic Mass 
      ----------- 

      Au               196.966600


 Effective nuclear repulsion energy (a.u.)  302941.0867054003

            Nuclear Dipole moment (a.u.) 
            ----------------------------
        X                 Y               Z
 ---------------- ---------------- ----------------
    -0.0000000000     0.0000000001     0.0000000000



                                NWChem Input Module
                                -------------------




                                     CITATION
                                     --------
                Please cite the following reference when publishing
                           results obtained with NWChem:

          E. Apra, E. J. Bylaska, W. A. de Jong, N. Govind, K. Kowalski,
       T. P. Straatsma, M. Valiev, H. J. J. van Dam, Y. Alexeev, J. Anchell,
       V. Anisimov, F. W. Aquino, R. Atta-Fynn, J. Autschbach, N. P. Bauman,
     J. C. Becca, D. E. Bernholdt, K. Bhaskaran-Nair, S. Bogatko, P. Borowski,
         J. Boschen, J. Brabec, A. Bruner, E. Cauet, Y. Chen, G. N. Chuev,
      C. J. Cramer, J. Daily, M. J. O. Deegan, T. H. Dunning Jr., M. Dupuis,
   K. G. Dyall, G. I. Fann, S. A. Fischer, A. Fonari, H. Fruchtl, L. Gagliardi,
      J. Garza, N. Gawande, S. Ghosh, K. Glaesemann, A. W. Gotz, J. Hammond,
       V. Helms, E. D. Hermes, K. Hirao, S. Hirata, M. Jacquelin, L. Jensen,
   B. G. Johnson, H. Jonsson, R. A. Kendall, M. Klemm, R. Kobayashi, V. Konkov,
      S. Krishnamoorthy, M. Krishnan, Z. Lin, R. D. Lins, R. J. Littlefield,
      A. J. Logsdail, K. Lopata, W. Ma, A. V. Marenich, J. Martin del Campo,
   D. Mejia-Rodriguez, J. E. Moore, J. M. Mullin, T. Nakajima, D. R. Nascimento,
    J. A. Nichols, P. J. Nichols, J. Nieplocha, A. Otero-de-la-Roza, B. Palmer,
    A. Panyala, T. Pirojsirikul, B. Peng, R. Peverati, J. Pittner, L. Pollack,
   R. M. Richard, P. Sadayappan, G. C. Schatz, W. A. Shelton, D. W. Silverstein,
   D. M. A. Smith, T. A. Soares, D. Song, M. Swart, H. L. Taylor, G. S. Thomas,
            V. Tipparaju, D. G. Truhlar, K. Tsemekhman, T. Van Voorhis,
      A. Vazquez-Mayagoitia, P. Verma, O. Villa, A. Vishnu, K. D. Vogiatzis,
        D. Wang, J. H. Weare, M. J. Williamson, T. L. Windus, K. Wolinski,
        A. T. Wong, Q. Wu, C. Yang, Q. Yu, M. Zacharias, Z. Zhang, Y. Zhao,
                                and R. J. Harrison
                        "NWChem: Past, present, and future
                         J. Chem. Phys. 152, 184102 (2020)
                               doi:10.1063/5.0004997

                                      AUTHORS
                                      -------
  E. Apra, E. J. Bylaska, N. Govind, K. Kowalski, M. Valiev, D. Mejia-Rodriguez,
       A. Kunitsa, N. P. Bauman, A. Panyala, W. A. de Jong, T. P. Straatsma,
   H. J. J. van Dam, D. Wang, T. L. Windus, J. Hammond, J. Autschbach, A. Woods,
    K. Bhaskaran-Nair, J. Brabec, K. Lopata, S. A. Fischer, S. Krishnamoorthy,
     M. Jacquelin, W. Ma, M. Klemm, O. Villa, Y. Chen, V. Anisimov, F. Aquino,
     S. Hirata, M. T. Hackler, E. Hermes, L. Jensen, J. E. Moore, J. C. Becca,
      V. Konjkov, T. Risthaus, M. Malagoli, A. Marenich, A. Otero-de-la-Roza,
        J. Mullin, P. Nichols, R. Peverati, J. Pittner, Y. Zhao, P.-D. Fan,
        A. Fonari, M. J. Williamson, R. J. Harrison, J. R. Rehr, M. Dupuis,
     D. Silverstein, D. M. A. Smith, J. Nieplocha, V. Tipparaju, M. Krishnan,
     B. E. Van Kuiken, A. Vazquez-Mayagoitia, M. Swart, Q. Wu, T. Van Voorhis,
     A. A. Auer, M. Nooijen, L. D. Crosby, E. Brown, G. Cisneros, G. I. Fann,
   H. Fruchtl, J. Garza, K. Hirao, R. A. Kendall, J. A. Nichols, K. Tsemekhman,
    K. Wolinski, J. Anchell, D. E. Bernholdt, P. Borowski, T. Clark, D. Clerc,
   H. Dachsel, M. J. O. Deegan, K. Dyall, D. Elwood, E. Glendening, M. Gutowski,
   A. C. Hess, J. Jaffe, B. G. Johnson, J. Ju, R. Kobayashi, R. Kutteh, Z. Lin,
   R. Littlefield, X. Long, B. Meng, T. Nakajima, S. Niu, L. Pollack, M. Rosing,
   K. Glaesemann, G. Sandrone, M. Stave, H. Taylor, G. Thomas, J. H. van Lenthe,
                               A. T. Wong, Z. Zhang.

 Total times  cpu:     1331.0s     wall:     1811.0s
