
  ___ ___ ___ _ _ _  
 |   |   |_  | | | | 
 | | | | | . | | | | 
 |__ |  _|___|_____|  24.6.0
 |___|_|             

User:   milias@Miro
Date:   Sat Jul 20 23:48:34 2024
Arch:   x86_64
Pid:    141697
CWD:    /mnt/c/Users/miroi/OneDrive/Desktop/Work/projekty/open-collection/theoretical_chemistry/software/gpaw-ase/runs/range_separated_functionals
Python: 3.10.12
gpaw:   /home/milias/.local/lib/python3.10/site-packages/gpaw
_gpaw:  /home/milias/.local/lib/python3.10/site-packages/
        _gpaw.cpython-310-x86_64-linux-gnu.so
ase:    /home/milias/.local/lib/python3.10/site-packages/ase (version 3.23.0)
numpy:  /home/milias/.local/lib/python3.10/site-packages/numpy (version 1.26.4)
scipy:  /home/milias/.local/lib/python3.10/site-packages/scipy (version 1.14.0)
libxc:  5.1.7
units:  Angstrom and eV
cores: 1
OpenMP: False
OMP_NUM_THREADS: 1

Input parameters:
  convergence: {density: 3,
                eigenstates: 3,
                energy: 0.1}
  eigensolver: {name: rmm-diis,
                niter: 3}
  h: 0.3
  mode: fd
  occupations: {fixmagmom: False,
                name: fermi-dirac,
                width: 0.0}
  spinpol: False
  xc: LCY-PBE

System changes: positions, numbers, cell, pbc, initial_charges, initial_magmoms 

Initialize ...

species:
  C:
    name: Carbon
    id: 4aa54d4b901d75f77cc0ea3eec22967b
    Z: 6.0
    valence: 4
    core: 2
    charge: 0.0
    file: /home/milias/work/software/gpaw-datasets/gpaw-setups-24.1.0/C.PBE.gz
    compensation charges: {type: gauss,
                           rc: 0.20,
                           lmax: 2}
    cutoffs: {filter: 1.14,
              core: 1.14}
    projectors:
      #              energy  rcut
      - 2s(2.00)   -13.751   0.635
      - 2p(2.00)    -5.284   0.635
      -  s          13.461   0.635
      -  p          21.927   0.635
      -  d           0.000   0.635
  
    # Using partial waves for C as LCAO basis

  O:
    name: Oxygen
    id: 32ecd46bf208036f09c70b0ec9a88b78
    Z: 8.0
    valence: 6
    core: 2
    charge: 0.0
    file: /home/milias/work/software/gpaw-datasets/gpaw-setups-24.1.0/O.PBE.gz
    compensation charges: {type: gauss,
                           rc: 0.21,
                           lmax: 2}
    cutoffs: {filter: 1.17,
              core: 0.83}
    projectors:
      #              energy  rcut
      - 2s(2.00)   -23.961   0.688
      - 2p(4.00)    -9.029   0.598
      -  s           3.251   0.688
      -  p          18.182   0.598
      -  d           0.000   0.619
  
    # Using partial waves for O as LCAO basis

Reference energy: -3068.480417  # eV

Spin-paired calculation

Convergence criteria:
 Maximum [total energy] change in last 3 cyles: 0.1 eV / valence electron
 Maximum integral of absolute [dens]ity change: 3 electrons / valence electron
 Maximum integral of absolute [eigenst]ate change: 3 eV^2 / valence electron
 Maximum number of scf [iter]ations: 333
 (Square brackets indicate name in SCF output, whereas a 'c' in
 the SCF output indicates the quantity has converged.)

Symmetries present (total): 8

  ( 1  0  0)  ( 1  0  0)  ( 0  1  0)  ( 0  1  0)  ( 0 -1  0)  ( 0 -1  0)
  ( 0  1  0)  ( 0 -1  0)  ( 1  0  0)  (-1  0  0)  ( 1  0  0)  (-1  0  0)
  ( 0  0  1)  ( 0  0  1)  ( 0  0  1)  ( 0  0  1)  ( 0  0  1)  ( 0  0  1)

  (-1  0  0)  (-1  0  0)
  ( 0  1  0)  ( 0 -1  0)
  ( 0  0  1)  ( 0  0  1)

1 k-point (Gamma)
1 k-point in the irreducible part of the Brillouin zone
       k-points in crystal coordinates                weights
   0:     0.00000000    0.00000000    0.00000000          1/1

Wave functions: Uniform real-space grid
  Kinetic energy operator: 6*3+1=19 point O(h^6) finite-difference Laplacian
  ScaLapack parameters: grid=1x1, blocksize=None
  Wavefunction extrapolation:
    Improved wavefunction reuse through dual PAW basis 

Occupation numbers: # Zero width 

Eigensolver
   RMM-DIIS eigensolver
       keep_htpsit: True
       DIIS iterations: 3
       Threshold for DIIS: 1.0e-16
       Limit lambda: False
       use_rayleigh: False
       trial_step: 0.1 

Densities:
  Coarse grid: 32*32*36 grid
  Fine grid: 64*64*72 grid
  Total Charge: 0.000000 

Density mixing:
  Method: separate
  Backend: pulay
  Linear mixing parameter: 0.25
  old densities: 3
  Damping of long wavelength oscillations: 1  # (no daming) 

Hamiltonian:
  XC and Coulomb potentials evaluated on a 64*64*72 grid
  Using the LCY-PBE Exchange-Correlation functional
  Interpolation: tri-quintic (5. degree polynomial)
  Poisson solver: FastPoissonSolver using
    Stencil: 6*3+1=19 point O(h^6) finite-difference Laplacian
    FFT axes: []
    FST axes: [0, 1, 2]
 

Memory estimate:
  Process memory now: 217.81 MiB
  Calculator: 18.87 MiB
    Density: 8.86 MiB
      Arrays: 6.96 MiB
      Localized functions: 0.36 MiB
      Mixer: 1.54 MiB
    Hamiltonian: 4.58 MiB
      Arrays: 4.56 MiB
      XC: 0.00 MiB
      Poisson: 0.00 MiB
      vbar: 0.03 MiB
    Wavefunctions: 5.43 MiB
      Arrays psit_nG: 2.05 MiB
      Eigensolver: 3.34 MiB
      Projections: 0.00 MiB
      Projectors: 0.04 MiB

Total number of cores used: 1

Number of atoms: 2
Number of atomic orbitals: 8
Number of bands in calculation: 8
Number of valence electrons: 10
Bands to converge: occupied

... initialized

Initializing position-dependent things.

Density initialized from atomic densities
Creating initial wave functions:
  8 bands from LCAO basis set

       .------------------------.  
      /|                        |  
     / |                        |  
    /  |                        |  
   /   |                        |  
  /    |                        |  
 *     |                        |  
 |     |                        |  
 |     |                        |  
 |     |         O              |  
 |     |                        |  
 |     |         C              |  
 |     |                        |  
 |     |                        |  
 |     .------------------------.  
 |    /                        /   
 |   /                        /    
 |  /                        /     
 | /                        /      
 |/                        /       
 *------------------------*        

Positions:
   0 C      5.000000    5.000000    5.000000    ( 0.0000,  0.0000,  0.0000)
   1 O      5.000000    5.000000    6.150000    ( 0.0000,  0.0000,  0.0000)

Unit cell:
           periodic     x           y           z      points  spacing
  1. axis:    no    10.000000    0.000000    0.000000    32     0.3125
  2. axis:    no     0.000000   10.000000    0.000000    32     0.3125
  3. axis:    no     0.000000    0.000000   11.150000    36     0.3097

  Lengths:  10.000000  10.000000  11.150000
  Angles:   90.000000  90.000000  90.000000

Effective grid spacing dv^(1/3) = 0.3116

     iter     time        total  log10-change:
                         energy   eigst   dens
iter:   1 23:48:34    98.239206
iter:   2 23:48:38   -29.554859   +0.84  -1.03c
iter:   3 23:48:41    24.686563   +0.41c -1.07c
iter:   4 23:48:44    28.752279   +0.40c -1.05c
iter:   5 23:48:47    32.639576   +0.29c -1.37c
iter:   6 23:48:51    32.416689   +0.41c -1.09c
iter:   7 23:48:54    26.515874   -0.41c -1.62c
iter:   8 23:48:58    28.877175   -0.85c -1.71c
iter:   9 23:49:01    30.269764   -1.32c -2.30c
iter:  10 23:49:04    29.836738   -1.51c -2.23c
iter:  11 23:49:08    29.538587c  -1.55c -2.52c

Converged after 11 iterations.

Dipole moment: (0.000000, 0.000000, 0.052546) |e|*Ang

Energy contributions relative to reference atoms: (reference = -3068.480417)

Kinetic:         -8.992405
Potential:       +0.250351
External:        +0.000000
XC:             +32.437717
Entropy (-ST):   +0.000000
Local:           +5.842924
SIC:             +0.000000
--------------------------
Free energy:    +29.538587
Extrapolated:   +29.538587

 Band  Eigenvalues  Occupancy
    0    -36.61448    2.00000
    1    -21.01308    2.00000
    2    -16.26569    2.00000
    3    -16.26568    2.00000
    4    -14.39590    2.00000
    5      3.06163    0.00000
    6      3.06163    0.00000
    7     20.08140    0.00000

Fermi level: -5.66713

Gap: 17.458 eV
Transition (v -> c):
  (s=0, k=0, n=4, [[0.00, 0.00, 0.00]]) -> (s=0, k=0, n=5, [[0.00, 0.00, 0.00]])
No difference between direct/indirect transitions
Timing:                              incl.     excl.
-----------------------------------------------------------
Hamiltonian:                         0.168     0.000   0.0% |
 Atomic:                             0.038     0.001   0.0% |
  XC Correction:                     0.038     0.038   0.1% |
 Calculate atomic Hamiltonians:      0.000     0.000   0.0% |
 Communicate:                        0.000     0.000   0.0% |
 Hartree integrate/restrict:         0.002     0.002   0.0% |
 Initialize Hamiltonian:             0.000     0.000   0.0% |
 Poisson:                            0.016     0.001   0.0% |
  Communicate from 1D:               0.001     0.001   0.0% |
  Communicate from 2D:               0.001     0.001   0.0% |
  Communicate to 1D:                 0.001     0.001   0.0% |
  Communicate to 2D:                 0.001     0.001   0.0% |
  FFT 1D:                            0.002     0.002   0.0% |
  FFT 2D:                            0.008     0.008   0.0% |
 XC 3D grid:                         0.110     0.110   0.3% |
 vbar:                               0.001     0.001   0.0% |
LCAO initialization:                 0.039     0.029   0.1% |
 LCAO eigensolver:                   0.005     0.000   0.0% |
  Calculate projections:             0.000     0.000   0.0% |
  DenseAtomicCorrection:             0.000     0.000   0.0% |
  Distribute overlap matrix:         0.000     0.000   0.0% |
  Orbital Layouts:                   0.004     0.004   0.0% |
  Potential matrix:                  0.001     0.001   0.0% |
 LCAO to grid:                       0.001     0.001   0.0% |
 Set positions (LCAO WFS):           0.004     0.000   0.0% |
  Basic WFS set positions:           0.000     0.000   0.0% |
  Basis functions set positions:     0.000     0.000   0.0% |
  P tci:                             0.001     0.001   0.0% |
  ST tci:                            0.002     0.002   0.0% |
  mktci:                             0.001     0.001   0.0% |
SCF-cycle:                          33.505     0.012   0.0% |
 Density:                            0.075     0.000   0.0% |
  Atomic density matrices:           0.004     0.004   0.0% |
  Mix:                               0.021     0.021   0.1% |
  Multipole moments:                 0.001     0.001   0.0% |
  Pseudo density:                    0.050     0.004   0.0% |
   Symmetrize density:               0.046     0.046   0.1% |
 Hamiltonian:                        1.519     0.000   0.0% |
  Atomic:                            0.304     0.003   0.0% |
   XC Correction:                    0.301     0.301   0.9% |
  Calculate atomic Hamiltonians:     0.002     0.002   0.0% |
  Communicate:                       0.000     0.000   0.0% |
  Hartree integrate/restrict:        0.016     0.016   0.0% |
  Poisson:                           0.127     0.007   0.0% |
   Communicate from 1D:              0.011     0.011   0.0% |
   Communicate from 2D:              0.011     0.011   0.0% |
   Communicate to 1D:                0.014     0.014   0.0% |
   Communicate to 2D:                0.012     0.012   0.0% |
   FFT 1D:                           0.022     0.022   0.1% |
   FFT 2D:                           0.049     0.049   0.1% |
  XC 3D grid:                        1.061     1.061   3.1% ||
  vbar:                              0.007     0.007   0.0% |
 Orthonormalize:                     0.020     0.001   0.0% |
  calc_s_matrix:                     0.008     0.008   0.0% |
  inverse-cholesky:                  0.003     0.003   0.0% |
  projections:                       0.002     0.002   0.0% |
  rotate_psi_s:                      0.007     0.007   0.0% |
 RMM-DIIS:                          20.352     0.015   0.0% |
  Apply hamiltonian:                 8.704     8.704  25.6% |---------|
  Calculate residuals:               0.015     0.015   0.0% |
  DIIS step:                        11.447     0.015   0.0% |
   Calculate residuals:             11.322     0.011   0.0% |
    Apply hamiltonian:              11.311    11.311  33.3% |------------|
   Construct matrix:                 0.020     0.020   0.1% |
   Linear solve:                     0.002     0.002   0.0% |
   Update trial vectors:             0.013     0.013   0.0% |
   precondition:                     0.074     0.074   0.2% |
  Find lambda:                       0.013     0.013   0.0% |
  Update psi:                        0.008     0.008   0.0% |
  precondition:                      0.147     0.147   0.4% |
  projections:                       0.002     0.002   0.0% |
 Subspace diag:                     11.527     0.001   0.0% |
  calc_h_matrix:                    11.509     0.008   0.0% |
   Apply hamiltonian:               11.501    11.501  33.8% |-------------|
  diagonalize:                       0.003     0.003   0.0% |
  rotate_psi:                        0.014     0.014   0.0% |
Set symmetry:                        0.002     0.002   0.0% |
Other:                               0.268     0.268   0.8% |
-----------------------------------------------------------
Total:                                        33.981 100.0%

Memory usage: 259.27 MiB
Date: Sat Jul 20 23:49:08 2024
