

 Parallel Execution: Process Information
 ==============================================================================
 Rank   Node Name                              NodeID   MyNodeRank  NodeMaster
    0   adf1                                      0          0          0
    1   adf1                                      0          1         -1
    2   adf1                                      0          2         -1
    3   adf1                                      0          3         -1
    4   adf1                                      0          4         -1
    5   adf1                                      0          5         -1
    6   adf1                                      1          0          1
    7   adf1                                      1          1         -1
    8   adf1                                      1          2         -1
    9   adf1                                      1          3         -1
   10   adf1                                      1          4         -1
   11   adf1                                      1          5         -1
 ==============================================================================


May use up to 11697MB of RAM as shared memory on node 0
May use up to 11718MB of RAM as shared memory on node 1

 *******************************************************************************
 *                                                                             *
 *  --------------------------------                                           *
 *   Amsterdam Modeling Suite (AMS)              2021.105                      *
 *  --------------------------------                                           *
 *                                               r97261 2021-09-16             *
 *                                                                             *
 *                                                                             *
 *                              =================                              *
 *                              |               |                              *
 *                              |     A M S     |                              *
 *                              |               |                              *
 *                              =================                              *
 *                                                                             *
 *                                                                             *
 *   Online information and documentation:  https://www.scm.com/support/       *
 *   E-mail:  support@scm.com   info@scm.com                                   *
 *                                                                             *
 *   Scientific publications using AMS results must be properly referenced     *
 *   See the User Manuals (or the web site) for recommended citations          *
 *   The terms and conditions of the End User License Agreement apply to       *
 *   the use of AMS, https://www.scm.com/license-terms/                        *
 *                                                                             *
 **********************  x86_64_linux_intel / intelmpi  ************************
 
 Licensed to: Dr. Miroslav Ilias / Matej Bel University, Department Chemistry, Fac. Natural Sciences / Banska Bystrica / SLOVAKIA
 SCM User ID: u17848
  
 AMS 2021.105  RunTime: Nov10-2021 09:58:58  ShM Nodes: 2  Procs: 12

 AMS jobname: ams
 AMS jobid  : 919681521

 Start   directory: /home/milias/Work/projects/open-collection/theoretical_chemistry/projects/nmr_diplomovky/derivaty_markerov/derivative_7_Ivan/ams/sozora/tmp.milias.10081.0.noindex/
 Results directory: /home/milias/Work/projects/open-collection/theoretical_chemistry/projects/nmr_diplomovky/derivaty_markerov/derivative_7_Ivan/ams/sozora/der7.nmr_opbe_sozora_gnuc_tz2p-j_good_cosmo-chcl3.results/
 Scratch directory: /tmp/amstmp_ams_kid0.919681521/


 Communication costs MPI_COMM_WORLD:      2.782 usec per message,   0.0274 usec per 8-byte item
 Communication costs for intra-node:      1.601 usec per message,   0.0135 usec per 8-byte item

 RNG seed: 2040819292 1405436558 205007652 -28337271 92965498 1687533325 -1542724970 1686281468



                     *************************************************************************
                     *  ADF 2021.105  RunTime: Nov10-2021 09:58:59  ShM Nodes: 2  Procs: 12  *
                     *************************************************************************
  
       ****************************
       * SINGLE POINT CALCULATION *
       ****************************
 
--------
Geometry
--------
Formula: C12H25O3P
Atoms
  Index Symbol   x (angstrom)   y (angstrom)   z (angstrom)
      1      O     3.37860868    -0.46689047     0.06150836       adf.R=1.517
      2      P     2.30535561     0.22998237    -0.96050630       adf.R=1.850
      3      O     1.50966689     1.30585036    -0.00883072       adf.R=1.517
      4      O     1.09841194    -0.88740277    -0.87131108       adf.R=1.517
      5      C     0.40286340     0.71414025     0.71558852       adf.R=1.700
      6      C    -0.10906540    -0.37705424    -0.26725722       adf.R=1.700
      7      C     0.92416919     0.14272307     2.02632587       adf.R=1.700
      8      C    -0.59579806     1.82108522     0.98813253       adf.R=1.700
      9      C    -0.97890227     0.18916929    -1.38103519       adf.R=1.700
     10      C    -0.81046958    -1.53896318     0.40778392       adf.R=1.700
     11      H     0.10095836    -0.20032798     2.65600725       adf.R=1.350
     12      H     1.61322194    -0.68401349     1.85762908       adf.R=1.350
     13      H     1.45866830     0.92855084     2.56223116       adf.R=1.350
     14      H    -0.85951911     2.35393187     0.07605112       adf.R=1.350
     15      H    -1.50562839     1.41366398     1.43571542       adf.R=1.350
     16      H    -0.16566387     2.53702792     1.68987027       adf.R=1.350
     17      H    -1.95968377     0.49103018    -1.00937839       adf.R=1.350
     18      H    -0.50441732     1.05000499    -1.85500153       adf.R=1.350
     19      H    -1.12048191    -0.58241897    -2.13870944       adf.R=1.350
     20      H    -1.69322231    -1.19092136     0.94986249       adf.R=1.350
     21      H    -1.13750129    -2.25588685    -0.34649025       adf.R=1.350
     22      H    -0.14852541    -2.05280818     1.10257660       adf.R=1.350
     23      C     4.75872897    -0.53095051    -0.34363266       adf.R=1.700
     24      C     5.62151446     0.27251405     0.65029466       adf.R=1.700
     25      H     4.45445368    -2.45472132    -1.23408393       adf.R=1.350
     26      H     4.99278984    -2.53131755     0.44288621       adf.R=1.350
     27      C     5.48644905    -0.27347337     2.06999903       adf.R=1.700
     28      C     5.16611810     1.73147851     0.62536351       adf.R=1.700
     29      H     6.14403202    -2.11960976    -0.84325605       adf.R=1.350
     30      C     5.11664255    -1.99492270    -0.49913274       adf.R=1.700
     31      H     4.85255349    -0.03913089    -1.32211032       adf.R=1.350
     32      C     7.08412785     0.21045171     0.20921761       adf.R=1.700
     33      H     5.79219203     2.33389635     1.28819613       adf.R=1.350
     34      H     4.13035900     1.83402046     0.95201868       adf.R=1.350
     35      H     5.24614920     2.15190936    -0.38163151       adf.R=1.350
     36      H     5.86461004    -1.29497271     2.15114777       adf.R=1.350
     37      H     4.44377294    -0.26705422     2.39215905       adf.R=1.350
     38      H     6.06038413     0.34532651     2.76445519       adf.R=1.350
     39      H     7.68809517     0.87759696     0.82872484       adf.R=1.350
     40      H     7.20118058     0.52950606    -0.83066395       adf.R=1.350
     41      H     7.50033830    -0.79394788     0.30677456       adf.R=1.350
 
Total System Charge             0.00000
Bonding info available!
 
 
----------------
ADF Engine Input
----------------
 
 Basis
 Type TZ2P-J
 Core None
 End
 Save TAPE10
 XC
 GGA OPBE
 End
 Relativity
 Level Spin-Orbit
 End
 Symmetry NOSYM
 Solvation
 Surf Delley
 Solv name=Chloroform cav0=0.0 cav1=0.0067639
 Charged method=CONJ
 C-Mat POT
 SCF VAR ALL
 CSMRSP
 End
 NumericalQuality Good
 NuclearModel Gaussian
 

 Title: *** (NO TITLE) ***

 *** adf ***



 ===========================
 A T T A C H E D   F I L E S
 ===========================
  



 ===============================
 M O D E L   P A R A M E T E R S
 ===============================
  
 DENSITY FUNCTIONAL POTENTIAL (scf)
    LDA:                               VWN                                      
    Gradient Corrections:              OPTX PBEc                               == Not Default ==

 SPIN  (restricted / unrestr.)
    Molecule:                          Restricted                               
    Fragments:                         Restricted                               

 OTHER ASPECTS
    Relativistic Corrections:          Spin-Orbit (ZORA,MAPA)                  == Not Default ==

    Nuclear Charge Density Model:      Gaussian Charge Distributions            *** SPECIAL ***
    Core Treatment:                    Frozen Orbital(s)                        

    Hyperfine or Zeeman Interaction:   ---                                      

 SOLVATION
-------------------------------------------

  The Delley construction of COSMO surface surface is calculated

       Division Level for Surface Triangles (NDIV)                  3
       Final Division Level for Triangles (NFDIV)                   1
       Radius of the Solvent (RSOL)                           3.17000 angstr
  Dielectric Constant (EPSL)                                  4.80000

       COSMO equation is solved iteratively-               conjugate-gradient

       Maximun of Iterations for Charges (NCIX)                  1000
       Criterion for Charge convergence (CCNV)                1.0E-08

  COSMO charges included variationally in SCF

       COSMO included at every SCF cycle

  Geometry-dependent empirical factor                         0.00000

  C-Matrix calculated in cspmtx

  In cspmtx, C-Matrix calculated using fitted potential

-------------------------------------------



 Fragment File(s)
 ----------------
 O:
         file : /home/milias/Work/projects/open-collection/theoretical_chemistry/projects/nmr_diplomovky/derivaty_markerov/derivative_7_Ivan/ams/sozora/der7.nmr_opbe_sozora_gnuc_tz2p-j_good_cosmo-chcl3.results/t21.2FAE71B0.O
         jobid: 0
         title: Oxygen (TZ2P-J)
 P:
         file : /home/milias/Work/projects/open-collection/theoretical_chemistry/projects/nmr_diplomovky/derivaty_markerov/derivative_7_Ivan/ams/sozora/der7.nmr_opbe_sozora_gnuc_tz2p-j_good_cosmo-chcl3.results/t21.20753184.P
         jobid: 0
         title: Phosphorus (TZ2P-J)
 C:
         file : /home/milias/Work/projects/open-collection/theoretical_chemistry/projects/nmr_diplomovky/derivaty_markerov/derivative_7_Ivan/ams/sozora/der7.nmr_opbe_sozora_gnuc_tz2p-j_good_cosmo-chcl3.results/t21.720B2D19.C
         jobid: 0
         title: Carbon (TZ2P-J)
 H:
         file : /home/milias/Work/projects/open-collection/theoretical_chemistry/projects/nmr_diplomovky/derivaty_markerov/derivative_7_Ivan/ams/sozora/der7.nmr_opbe_sozora_gnuc_tz2p-j_good_cosmo-chcl3.results/t21.5EF83CD9.H
         jobid: 0
         title: Hydrogen (TZ2P-J)



 ===============
 G E O M E T R Y  ***  3D  Molecule  ***
 ===============
  

 ATOMS
 =====                            X Y Z                    CHARGE                     RADIUS
                                (Angstrom)             Nucl     +Core       At.Mass (Angstrom)
                       --------------------------    ----------------       ------- ----------
    1  O               3.3786   -0.4669    0.0615      8.00      8.00       15.9949    1.5170
    2  P               2.3054    0.2300   -0.9605     15.00     15.00       30.9738    1.8500
    3  O               1.5097    1.3059   -0.0088      8.00      8.00       15.9949    1.5170
    4  O               1.0984   -0.8874   -0.8713      8.00      8.00       15.9949    1.5170
    5  C               0.4029    0.7141    0.7156      6.00      6.00       12.0000    1.7000
    6  C              -0.1091   -0.3771   -0.2673      6.00      6.00       12.0000    1.7000
    7  C               0.9242    0.1427    2.0263      6.00      6.00       12.0000    1.7000
    8  C              -0.5958    1.8211    0.9881      6.00      6.00       12.0000    1.7000
    9  C              -0.9789    0.1892   -1.3810      6.00      6.00       12.0000    1.7000
   10  C              -0.8105   -1.5390    0.4078      6.00      6.00       12.0000    1.7000
   11  H               0.1010   -0.2003    2.6560      1.00      1.00        1.0078    1.3500
   12  H               1.6132   -0.6840    1.8576      1.00      1.00        1.0078    1.3500
   13  H               1.4587    0.9286    2.5622      1.00      1.00        1.0078    1.3500
   14  H              -0.8595    2.3539    0.0761      1.00      1.00        1.0078    1.3500
   15  H              -1.5056    1.4137    1.4357      1.00      1.00        1.0078    1.3500
   16  H              -0.1657    2.5370    1.6899      1.00      1.00        1.0078    1.3500
   17  H              -1.9597    0.4910   -1.0094      1.00      1.00        1.0078    1.3500
   18  H              -0.5044    1.0500   -1.8550      1.00      1.00        1.0078    1.3500
   19  H              -1.1205   -0.5824   -2.1387      1.00      1.00        1.0078    1.3500
   20  H              -1.6932   -1.1909    0.9499      1.00      1.00        1.0078    1.3500
   21  H              -1.1375   -2.2559   -0.3465      1.00      1.00        1.0078    1.3500
   22  H              -0.1485   -2.0528    1.1026      1.00      1.00        1.0078    1.3500
   23  C               4.7587   -0.5310   -0.3436      6.00      6.00       12.0000    1.7000
   24  C               5.6215    0.2725    0.6503      6.00      6.00       12.0000    1.7000
   25  H               4.4545   -2.4547   -1.2341      1.00      1.00        1.0078    1.3500
   26  H               4.9928   -2.5313    0.4429      1.00      1.00        1.0078    1.3500
   27  C               5.4864   -0.2735    2.0700      6.00      6.00       12.0000    1.7000
   28  C               5.1661    1.7315    0.6254      6.00      6.00       12.0000    1.7000
   29  H               6.1440   -2.1196   -0.8433      1.00      1.00        1.0078    1.3500
   30  C               5.1166   -1.9949   -0.4991      6.00      6.00       12.0000    1.7000
   31  H               4.8526   -0.0391   -1.3221      1.00      1.00        1.0078    1.3500
   32  C               7.0841    0.2105    0.2092      6.00      6.00       12.0000    1.7000
   33  H               5.7922    2.3339    1.2882      1.00      1.00        1.0078    1.3500
   34  H               4.1304    1.8340    0.9520      1.00      1.00        1.0078    1.3500
   35  H               5.2461    2.1519   -0.3816      1.00      1.00        1.0078    1.3500
   36  H               5.8646   -1.2950    2.1511      1.00      1.00        1.0078    1.3500
   37  H               4.4438   -0.2671    2.3922      1.00      1.00        1.0078    1.3500
   38  H               6.0604    0.3453    2.7645      1.00      1.00        1.0078    1.3500
   39  H               7.6881    0.8776    0.8287      1.00      1.00        1.0078    1.3500
   40  H               7.2012    0.5295   -0.8307      1.00      1.00        1.0078    1.3500
   41  H               7.5003   -0.7939    0.3068      1.00      1.00        1.0078    1.3500


 FRAGMENTS
 =========                                     Atoms in this Fragment     Cart. coord.s (Angstrom)
                                               -------------------------------------------------------
    1  O                                                 1  O            3.3786   -0.4669    0.0615
    2  O                                                 3  O            1.5097    1.3059   -0.0088
    3  O                                                 4  O            1.0984   -0.8874   -0.8713
    4  P                                                 2  P            2.3054    0.2300   -0.9605
    5  C                                                 5  C            0.4029    0.7141    0.7156
    6  C                                                 6  C           -0.1091   -0.3771   -0.2673
    7  C                                                 7  C            0.9242    0.1427    2.0263
    8  C                                                 8  C           -0.5958    1.8211    0.9881
    9  C                                                 9  C           -0.9789    0.1892   -1.3810
   10  C                                                10  C           -0.8105   -1.5390    0.4078
   11  C                                                23  C            4.7587   -0.5310   -0.3436
   12  C                                                24  C            5.6215    0.2725    0.6503
   13  C                                                27  C            5.4864   -0.2735    2.0700
   14  C                                                28  C            5.1661    1.7315    0.6254
   15  C                                                30  C            5.1166   -1.9949   -0.4991
   16  C                                                32  C            7.0841    0.2105    0.2092
   17  H                                                11  H            0.1010   -0.2003    2.6560
   18  H                                                12  H            1.6132   -0.6840    1.8576
   19  H                                                13  H            1.4587    0.9286    2.5622
   20  H                                                14  H           -0.8595    2.3539    0.0761
   21  H                                                15  H           -1.5056    1.4137    1.4357
   22  H                                                16  H           -0.1657    2.5370    1.6899
   23  H                                                17  H           -1.9597    0.4910   -1.0094
   24  H                                                18  H           -0.5044    1.0500   -1.8550
   25  H                                                19  H           -1.1205   -0.5824   -2.1387
   26  H                                                20  H           -1.6932   -1.1909    0.9499
   27  H                                                21  H           -1.1375   -2.2559   -0.3465
   28  H                                                22  H           -0.1485   -2.0528    1.1026
   29  H                                                25  H            4.4545   -2.4547   -1.2341
   30  H                                                26  H            4.9928   -2.5313    0.4429
   31  H                                                29  H            6.1440   -2.1196   -0.8433
   32  H                                                31  H            4.8526   -0.0391   -1.3221
   33  H                                                33  H            5.7922    2.3339    1.2882
   34  H                                                34  H            4.1304    1.8340    0.9520
   35  H                                                35  H            5.2461    2.1519   -0.3816
   36  H                                                36  H            5.8646   -1.2950    2.1511
   37  H                                                37  H            4.4438   -0.2671    2.3922
   38  H                                                38  H            6.0604    0.3453    2.7645
   39  H                                                39  H            7.6881    0.8776    0.8287
   40  H                                                40  H            7.2012    0.5295   -0.8307
   41  H                                                41  H            7.5003   -0.7939    0.3068



 =====================================
 S Y M M E T R Y ,   E L E C T R O N S
 =====================================
  
 Symmetry: NOSYM

 Double Group Irreducible Representations (spinor symmetry)
 -----------------------------------------------------------
 A1/2


 Configuration of Valence Electrons
 ==================================
 ( determined in the SCF procedure )

 Total:   136

 Net Charge: 0 (Nuclei minus Electrons)

 Aufbau principle for MO occupations will be applied through SCF cycle no.     150
 Thereafter, the program will assign electrons to MOs that are spatially
 similar to the occupied MOs in a "reference" cycle ("KeepOrbitals").
 The reference cycle is always the PREVIOUS cycle: it will evolve with
 the SCF procedure.
1
 ***************************************************************************************************



                                      ****************************************
                                      *  B U I L D : (Fragments, Functions)  *
                                      ****************************************
  

 Total nr. of (C)SFOs (summation over all irreps) :   911

 Specify PRINT SFO in the input file to get a full list

 Nr. of SFOs for ir.rep.           A :   911



 ================================
 (Slater-type)  F U N C T I O N S  ***  (Basis and Fit)  ***
 ================================
  

 Atom Type    1  (O)
 ==============

 Valence Basis Sets:  15
 -----------------------
   1 S  800.000000
   1 S  160.000000
   1 S   40.000000
   1 S   16.000000
   1 S    9.800000
   1 S    6.800000
   2 S    7.580000
   2 S    2.880000
   2 S    1.720000
   2 P    9.800000
   2 P    4.080000
   2 P    2.080000
   2 P    1.120000
   3 D    2.000000
   4 F    3.000000

 Atom Type    2  (P)
 ==============

 Valence Basis Sets:  19
 -----------------------
   1 S 1500.000000
   1 S  300.000000
   1 S   75.000000
   1 S   30.000000
   1 S   18.000000
   1 S   13.350000
   2 S    5.600000
   2 S    4.050000
   2 P   18.000000
   2 P    7.450000
   2 P    4.100000
   3 S    2.700000
   3 S    1.850000
   3 S    1.300000
   3 P    2.300000
   3 P    1.350000
   3 P    0.850000
   3 D    1.900000
   4 F    2.000000

 Atom Type    3  (C)
 ==============

 Valence Basis Sets:  15
 -----------------------
   1 S  600.000000
   1 S  120.000000
   1 S   30.000000
   1 S   12.000000
   1 S    7.680000
   1 S    5.000000
   2 S    1.280000
   2 S    2.100000
   2 S    4.600000
   2 P    7.680000
   2 P    0.820000
   2 P    1.480000
   2 P    2.940000
   3 D    2.200000
   4 F    3.300000

 Atom Type    4  (H)
 ==============

 Valence Basis Sets:   9
 -----------------------
   1 S  100.000000
   1 S   25.000000
   1 S    7.500000
   1 S    3.000000
   1 S    0.690000
   1 S    0.920000
   1 S    1.580000
   2 P    1.250000
   3 D    2.500000


 BAS: List of all Elementary Cartesian Basis Functions
 =====================================================

 The numbering in the list below (to the right of the function characteristics) is referred
 to in print-outs of MO eigenvectors and Mulliken populations in the BAS representation
 (as contrasted to the SFO representation).

 Notes:
 1. The functions are characterized by a polynomial prefactor (powers of x,y,z and r) and
    an exponential decay factor alpha.
 2. Since the basis sets are specific for an atom TYPE, the individual functions occur on
    all atoms of that type.
 3. The word 'Core' in the left margin signals that it is a Core Function (CF) : not a
    degree of freedom in the valence set, but only used to ensure orthogonalization of
    the other valence basis functions on the frozen Core Orbitals.


 (power of) X  Y  Z  R     Alpha  on Atom
            ==========     =====     ==========

 O                                    1    2    3
                                  ---------------------------------------------------------------------------
            0  0  0  0   800.000      1   38   75
            0  0  0  0   160.000      2   39   76
            0  0  0  0    40.000      3   40   77
            0  0  0  0    16.000      4   41   78
            0  0  0  0     9.800      5   42   79
            0  0  0  0     6.800      6   43   80
            0  0  0  1     7.580      7   44   81
            0  0  0  1     2.880      8   45   82
            0  0  0  1     1.720      9   46   83
            1  0  0  0     9.800     10   47   84
            0  1  0  0     9.800     11   48   85
            0  0  1  0     9.800     12   49   86
            1  0  0  0     4.080     13   50   87
            0  1  0  0     4.080     14   51   88
            0  0  1  0     4.080     15   52   89
            1  0  0  0     2.080     16   53   90
            0  1  0  0     2.080     17   54   91
            0  0  1  0     2.080     18   55   92
            1  0  0  0     1.120     19   56   93
            0  1  0  0     1.120     20   57   94
            0  0  1  0     1.120     21   58   95
            2  0  0  0     2.000     22   59   96
            1  1  0  0     2.000     23   60   97
            1  0  1  0     2.000     24   61   98
            0  2  0  0     2.000     25   62   99
            0  1  1  0     2.000     26   63  100
            0  0  2  0     2.000     27   64  101
            3  0  0  0     3.000     28   65  102
            2  1  0  0     3.000     29   66  103
            2  0  1  0     3.000     30   67  104
            1  2  0  0     3.000     31   68  105
            1  1  1  0     3.000     32   69  106
            1  0  2  0     3.000     33   70  107
            0  3  0  0     3.000     34   71  108
            0  2  1  0     3.000     35   72  109
            0  1  2  0     3.000     36   73  110
            0  0  3  0     3.000     37   74  111

 P                                    4
                                  ---------------------------------------------------------------------------
            0  0  0  0  1500.000    112
            0  0  0  0   300.000    113
            0  0  0  0    75.000    114
            0  0  0  0    30.000    115
            0  0  0  0    18.000    116
            0  0  0  0    13.350    117
            0  0  0  1     5.600    118
            0  0  0  1     4.050    119
            1  0  0  0    18.000    120
            0  1  0  0    18.000    121
            0  0  1  0    18.000    122
            1  0  0  0     7.450    123
            0  1  0  0     7.450    124
            0  0  1  0     7.450    125
            1  0  0  0     4.100    126
            0  1  0  0     4.100    127
            0  0  1  0     4.100    128
            0  0  0  2     2.700    129
            0  0  0  2     1.850    130
            0  0  0  2     1.300    131
            1  0  0  1     2.300    132
            0  1  0  1     2.300    133
            0  0  1  1     2.300    134
            1  0  0  1     1.350    135
            0  1  0  1     1.350    136
            0  0  1  1     1.350    137
            1  0  0  1     0.850    138
            0  1  0  1     0.850    139
            0  0  1  1     0.850    140
            2  0  0  0     1.900    141
            1  1  0  0     1.900    142
            1  0  1  0     1.900    143
            0  2  0  0     1.900    144
            0  1  1  0     1.900    145
            0  0  2  0     1.900    146
            3  0  0  0     2.000    147
            2  1  0  0     2.000    148
            2  0  1  0     2.000    149
            1  2  0  0     2.000    150
            1  1  1  0     2.000    151
            1  0  2  0     2.000    152
            0  3  0  0     2.000    153
            0  2  1  0     2.000    154
            0  1  2  0     2.000    155
            0  0  3  0     2.000    156

 C                                    5    6    7    8    9   10   11   12   13   14   15   16
                                  ---------------------------------------------------------------------------
            0  0  0  0   600.000    157  194  231  268  305  342  379  416  453  490  527  564
            0  0  0  0   120.000    158  195  232  269  306  343  380  417  454  491  528  565
            0  0  0  0    30.000    159  196  233  270  307  344  381  418  455  492  529  566
            0  0  0  0    12.000    160  197  234  271  308  345  382  419  456  493  530  567
            0  0  0  0     7.680    161  198  235  272  309  346  383  420  457  494  531  568
            0  0  0  0     5.000    162  199  236  273  310  347  384  421  458  495  532  569
            0  0  0  1     1.280    163  200  237  274  311  348  385  422  459  496  533  570
            0  0  0  1     2.100    164  201  238  275  312  349  386  423  460  497  534  571
            0  0  0  1     4.600    165  202  239  276  313  350  387  424  461  498  535  572
            1  0  0  0     7.680    166  203  240  277  314  351  388  425  462  499  536  573
            0  1  0  0     7.680    167  204  241  278  315  352  389  426  463  500  537  574
            0  0  1  0     7.680    168  205  242  279  316  353  390  427  464  501  538  575
            1  0  0  0     0.820    169  206  243  280  317  354  391  428  465  502  539  576
            0  1  0  0     0.820    170  207  244  281  318  355  392  429  466  503  540  577
            0  0  1  0     0.820    171  208  245  282  319  356  393  430  467  504  541  578
            1  0  0  0     1.480    172  209  246  283  320  357  394  431  468  505  542  579
            0  1  0  0     1.480    173  210  247  284  321  358  395  432  469  506  543  580
            0  0  1  0     1.480    174  211  248  285  322  359  396  433  470  507  544  581
            1  0  0  0     2.940    175  212  249  286  323  360  397  434  471  508  545  582
            0  1  0  0     2.940    176  213  250  287  324  361  398  435  472  509  546  583
            0  0  1  0     2.940    177  214  251  288  325  362  399  436  473  510  547  584
            2  0  0  0     2.200    178  215  252  289  326  363  400  437  474  511  548  585
            1  1  0  0     2.200    179  216  253  290  327  364  401  438  475  512  549  586
            1  0  1  0     2.200    180  217  254  291  328  365  402  439  476  513  550  587
            0  2  0  0     2.200    181  218  255  292  329  366  403  440  477  514  551  588
            0  1  1  0     2.200    182  219  256  293  330  367  404  441  478  515  552  589
            0  0  2  0     2.200    183  220  257  294  331  368  405  442  479  516  553  590
            3  0  0  0     3.300    184  221  258  295  332  369  406  443  480  517  554  591
            2  1  0  0     3.300    185  222  259  296  333  370  407  444  481  518  555  592
            2  0  1  0     3.300    186  223  260  297  334  371  408  445  482  519  556  593
            1  2  0  0     3.300    187  224  261  298  335  372  409  446  483  520  557  594
            1  1  1  0     3.300    188  225  262  299  336  373  410  447  484  521  558  595
            1  0  2  0     3.300    189  226  263  300  337  374  411  448  485  522  559  596
            0  3  0  0     3.300    190  227  264  301  338  375  412  449  486  523  560  597
            0  2  1  0     3.300    191  228  265  302  339  376  413  450  487  524  561  598
            0  1  2  0     3.300    192  229  266  303  340  377  414  451  488  525  562  599
            0  0  3  0     3.300    193  230  267  304  341  378  415  452  489  526  563  600

 H                                   17   18   19   20   21   22   23   24   25   26   27   28   29   30   31
                                     32   33   34   35   36   37   38   39   40   41
                                  ---------------------------------------------------------------------------
            0  0  0  0   100.000    601  617  633  649  665  681  697  713  729  745  761  777  793  809  825
                                    841  857  873  889  905  921  937  953  969  985
            0  0  0  0    25.000    602  618  634  650  666  682  698  714  730  746  762  778  794  810  826
                                    842  858  874  890  906  922  938  954  970  986
            0  0  0  0     7.500    603  619  635  651  667  683  699  715  731  747  763  779  795  811  827
                                    843  859  875  891  907  923  939  955  971  987
            0  0  0  0     3.000    604  620  636  652  668  684  700  716  732  748  764  780  796  812  828
                                    844  860  876  892  908  924  940  956  972  988
            0  0  0  0     0.690    605  621  637  653  669  685  701  717  733  749  765  781  797  813  829
                                    845  861  877  893  909  925  941  957  973  989
            0  0  0  0     0.920    606  622  638  654  670  686  702  718  734  750  766  782  798  814  830
                                    846  862  878  894  910  926  942  958  974  990
            0  0  0  0     1.580    607  623  639  655  671  687  703  719  735  751  767  783  799  815  831
                                    847  863  879  895  911  927  943  959  975  991
            1  0  0  0     1.250    608  624  640  656  672  688  704  720  736  752  768  784  800  816  832
                                    848  864  880  896  912  928  944  960  976  992
            0  1  0  0     1.250    609  625  641  657  673  689  705  721  737  753  769  785  801  817  833
                                    849  865  881  897  913  929  945  961  977  993
            0  0  1  0     1.250    610  626  642  658  674  690  706  722  738  754  770  786  802  818  834
                                    850  866  882  898  914  930  946  962  978  994
            2  0  0  0     2.500    611  627  643  659  675  691  707  723  739  755  771  787  803  819  835
                                    851  867  883  899  915  931  947  963  979  995
            1  1  0  0     2.500    612  628  644  660  676  692  708  724  740  756  772  788  804  820  836
                                    852  868  884  900  916  932  948  964  980  996
            1  0  1  0     2.500    613  629  645  661  677  693  709  725  741  757  773  789  805  821  837
                                    853  869  885  901  917  933  949  965  981  997
            0  2  0  0     2.500    614  630  646  662  678  694  710  726  742  758  774  790  806  822  838
                                    854  870  886  902  918  934  950  966  982  998
            0  1  1  0     2.500    615  631  647  663  679  695  711  727  743  759  775  791  807  823  839
                                    855  871  887  903  919  935  951  967  983  999
            0  0  2  0     2.500    616  632  648  664  680  696  712  728  744  760  776  792  808  824  840
                                    856  872  888  904  920  936  952  968  984 1000

 Total number of charge fitting functions (nprimf)      5494
 Total number of Cartesian basis functions (naos)       1000
 Total number of Cartesian core functions  (ncos)          0

1
 ***************************************************************************************************



                                              ***********************
                                              *  T E C H N I C A L  *
                                              ***********************
  



 =============================================================
 P A R A L L E L I Z A T I O N  and  V E C T O R I Z A T I O N
 =============================================================
  
 Nr of parallel processes:                               12
 Maximum vector length in NumInt loops:                 128



 =====================
 S C F   U P D A T E S
 =====================
  
 Max. nr. of cycles:                               300
 Convergence criterion:                              0.0000010000
   secondary criterion:                              0.0010000000

 Mix parameter (when DIIS does not apply):           0.2000000000
 Mixed ADIIS+SDIIS will be used                  
    Max number of expansion vectors:                10
    Pure ADIIS when Max([F,P]) is above              0.1000000000
    Pure SDIIS when Max([F,P]) is below              0.0010000000
 Automatic ElectronSmearing (in case of problematic SCF convergence) disabled



 =================
 P R E C I S I O N  ***  (General: NumInt, NeglectFunctionTails, ...)  ***
 =================
  

 NumInt:           Target precision:                 6.0000000000
 -------           Initial precision:                6.0000000000
                   Min. precision (optimization):    6.0000000000

 Neglect Functions:          Basis functions:        0.1000000000E-07
 ------------------          Fit functions:          0.1000000000E-07



 ===========================
 L I N E A R   S C A L I N G
 ===========================
  

 Cut-off radii density fit:                        0.1000000000E-09
 Overlap cut-off criterion AO matrix elements:     0.1000000000E-07
 Cut-offs for Coulomb potential and fitted density:0.1000000000E-09
 Cut-off criterion for Coulomb multipole terms:    0.1000000000E-09
 Progressive Convergence parameter:                 0.000000000    
1
 ***************************************************************************************************



                                            ***************************
                                            *  C O M P U T A T I O N  *
                                            ***************************
  



 ==============================
 Double group spinor symmetries  ***  (Spin-Orbit)  ***
 ==============================
  

 The double group Lowdins are spinors adapted to the irreducible representations
 of the double group. These double group Lowdins are linear combinations of
 products of the single group Lowdins and the spinfunctions. The single group
 Lowdins are  orthonormalized symmetrized fragment orbitals (SFOs).
 The complex coefficients that are used in the linear combinations are also
 known as Clebsch-Gordan coefficients.
 The spin functions (alpha,beta) span irrep e1/2


          A * e 1/2 :      A1/2

  A1/2:1 = A.alpha
  A1/2:1 = A.beta

 The table summarizes which one-electron orbital irreps (single group) couple
 with spin to which spinor irreps (double group).
 The Clebsch-Gordan series for each direct product: orbital irrep times e1/2.
                  A
            -------
  A1/2           X


 dimension (equal to the max. nr. of electrons per spinor) of the double group irreps
 ------------------------------------------------------------------------------------
  A1/2           1

 Number of elements of the density matrix on this node (used, total):     41692    500500



 ===========================================
 Numerical Integration : Fuzzy Cells (Becke)
 ===========================================
  
 Becke grid quality: GOOD           
  
 Lebedev angular grid order:             min:  11 max:  31
 Nr. of radial points:                   min: 112 max: 222

 Total nr. of points:    1257340
 Nr. of blocks:             9823
 Block length:               128
 Nr. of dummy points:          4


 Test of Precision of the Numerical Integration Grid
 ===================================================

 Integral of the Total Core Density:                   0.00000000000000


 -------------------------------------------
  COSMO surface
  Area             =          977.382
  Volume           =         2232.073
  Number of Points =         2304
 -------------------------------------------



 ========================
 Density Fitting (zlmFit)
 ========================
  
 ZlmFit Fit Quality: GOOD           
  
 Max L-expansion:                        min:   8 max:   9
 Nr. of radial interpolation points:     min: 180 max: 378



 =====
 S C F  ***  ScaSCF  ***
 =====
  
 Initial density matrix is calculated as sum of fragments

 CYCLE    1
 SCF Error: norm([F,P])=     14.793692239344, max([F,P])=      1.051506911039
 orbitals (Q,E):
 ---------------
 A1/2 :127...146     ( 1.00    -0.4434)  ( 1.00    -0.4434)  ( 1.00    -0.4348)  ( 1.00    -0.4348)
                     ( 1.00    -0.4244)  ( 1.00    -0.4244)  ( 1.00    -0.3964)  ( 1.00    -0.3964)
                     ( 1.00    -0.3081)  ( 1.00    -0.3081)  ( 0.00    -0.0951)  ( 0.00    -0.0951)
                     ( 0.00    -0.0833)  ( 0.00    -0.0833)  ( 0.00    -0.0762)  ( 0.00    -0.0762)
                     ( 0.00    -0.0746)  ( 0.00    -0.0746)  ( 0.00    -0.0698)  ( 0.00    -0.0698)

 CYCLE    2
   MIX coefficients:  0.8000  0.2000
 SCF Error: norm([F,P])=      1.209331812273, max([F,P])=      0.096504740951
 orbitals (Q,E):
 ---------------
 A1/2 :127...146     ( 1.00    -0.3829)  ( 1.00    -0.3829)  ( 1.00    -0.3757)  ( 1.00    -0.3757)
                     ( 1.00    -0.3613)  ( 1.00    -0.3613)  ( 1.00    -0.3325)  ( 1.00    -0.3325)
                     ( 1.00    -0.2818)  ( 1.00    -0.2818)  ( 0.00    -0.0689)  ( 0.00    -0.0689)
                     ( 0.00    -0.0518)  ( 0.00    -0.0518)  ( 0.00    -0.0462)  ( 0.00    -0.0462)
                     ( 0.00    -0.0349)  ( 0.00    -0.0349)  ( 0.00    -0.0253)  ( 0.00    -0.0253)

 CYCLE    3
  SDIIS (wt  0.000): -1.0405  2.0405
 A-DIIS (wt  1.000):  0.0000  1.0000
  DIIS coefficients:  0.0000  1.0000
 SCF Error: norm([F,P])=      0.645352297107, max([F,P])=      0.049961688999
 orbitals (Q,E):
 ---------------
 A1/2 :127...146     ( 1.00    -0.1894)  ( 1.00    -0.1894)  ( 1.00    -0.1850)  ( 1.00    -0.1850)
                     ( 1.00    -0.1742)  ( 1.00    -0.1742)  ( 1.00    -0.1652)  ( 1.00    -0.1652)
                     ( 1.00    -0.1492)  ( 1.00    -0.1492)  ( 0.00     0.0100)  ( 0.00     0.0100)
                     ( 0.00     0.0104)  ( 0.00     0.0104)  ( 0.00     0.0174)  ( 0.00     0.0174)
                     ( 0.00     0.0298)  ( 0.00     0.0298)  ( 0.00     0.0317)  ( 0.00     0.0317)

 CYCLE    4
  SDIIS (wt  0.000):  0.1161  0.4445  0.4394
 A-DIIS (wt  1.000):  0.0000  0.6641  0.3359
  DIIS coefficients:  0.0000  0.6641  0.3359
 SCF Error: norm([F,P])=      0.962547281018, max([F,P])=      0.082475723612
 orbitals (Q,E):
 ---------------
 A1/2 :127...146     ( 1.00    -0.2642)  ( 1.00    -0.2642)  ( 1.00    -0.2600)  ( 1.00    -0.2600)
                     ( 1.00    -0.2476)  ( 1.00    -0.2476)  ( 1.00    -0.2236)  ( 1.00    -0.2236)
                     ( 1.00    -0.2036)  ( 1.00    -0.2036)  ( 0.00    -0.0042)  ( 0.00    -0.0042)
                     ( 0.00    -0.0015)  ( 0.00    -0.0015)  ( 0.00     0.0045)  ( 0.00     0.0045)
                     ( 0.00     0.0185)  ( 0.00     0.0185)  ( 0.00     0.0206)  ( 0.00     0.0206)

 CYCLE    5
  SDIIS (wt  0.889):  0.0648  0.1867  0.1337  0.6148
 A-DIIS (wt  0.111):  0.0000  0.0000  0.0000  1.0000
  DIIS coefficients:  0.0576  0.1661  0.1189  0.6574
 SCF Error: norm([F,P])=      0.150012259202, max([F,P])=      0.011949084375
 orbitals (Q,E):
 ---------------
 A1/2 :127...146     ( 1.00    -0.2717)  ( 1.00    -0.2717)  ( 1.00    -0.2681)  ( 1.00    -0.2681)
                     ( 1.00    -0.2520)  ( 1.00    -0.2520)  ( 1.00    -0.2264)  ( 1.00    -0.2264)
                     ( 1.00    -0.2073)  ( 1.00    -0.2073)  ( 0.00    -0.0083)  ( 0.00    -0.0083)
                     ( 0.00    -0.0050)  ( 0.00    -0.0050)  ( 0.00     0.0007)  ( 0.00     0.0007)
                     ( 0.00     0.0151)  ( 0.00     0.0151)  ( 0.00     0.0174)  ( 0.00     0.0174)

 CYCLE    6
  SDIIS (wt  0.904):  0.0239  0.0468  0.0185  0.4313  0.4795
 A-DIIS (wt  0.096):  0.0000  0.0000  0.0000  0.1777  0.8223
  DIIS coefficients:  0.0216  0.0423  0.0168  0.4070  0.5123
 SCF Error: norm([F,P])=      0.082064491013, max([F,P])=      0.010460765851
 orbitals (Q,E):
 ---------------
 A1/2 :127...146     ( 1.00    -0.2731)  ( 1.00    -0.2731)  ( 1.00    -0.2691)  ( 1.00    -0.2691)
                     ( 1.00    -0.2555)  ( 1.00    -0.2555)  ( 1.00    -0.2307)  ( 1.00    -0.2307)
                     ( 1.00    -0.2108)  ( 1.00    -0.2108)  ( 0.00    -0.0096)  ( 0.00    -0.0096)
                     ( 0.00    -0.0049)  ( 0.00    -0.0049)  ( 0.00     0.0008)  ( 0.00     0.0008)
                     ( 0.00     0.0150)  ( 0.00     0.0150)  ( 0.00     0.0173)  ( 0.00     0.0173)

 CYCLE    7
  SDIIS (wt  0.955): -0.0044  0.0286 -0.0049  0.2088  0.3298  0.4421
 A-DIIS (wt  0.045):  0.0000  0.0000  0.0000  0.0000  0.0617  0.9383
  DIIS coefficients: -0.0042  0.0273 -0.0046  0.1993  0.3177  0.4646
 SCF Error: norm([F,P])=      0.029181042701, max([F,P])=      0.005487478426
 orbitals (Q,E):
 ---------------
 A1/2 :127...146     ( 1.00    -0.2728)  ( 1.00    -0.2728)  ( 1.00    -0.2689)  ( 1.00    -0.2689)
                     ( 1.00    -0.2542)  ( 1.00    -0.2542)  ( 1.00    -0.2295)  ( 1.00    -0.2295)
                     ( 1.00    -0.2090)  ( 1.00    -0.2090)  ( 0.00    -0.0085)  ( 0.00    -0.0085)
                     ( 0.00    -0.0049)  ( 0.00    -0.0049)  ( 0.00     0.0008)  ( 0.00     0.0008)
                     ( 0.00     0.0151)  ( 0.00     0.0151)  ( 0.00     0.0173)  ( 0.00     0.0173)

 CYCLE    8
  SDIIS (wt  0.993): -0.0014  0.0047 -0.0040  0.0630  0.1219  0.3070  0.5088
 A-DIIS (wt  0.007):  0.0000  0.0000  0.0000  0.0000  0.0000  0.1424  0.8576
  DIIS coefficients: -0.0014  0.0046 -0.0040  0.0625  0.1211  0.3058  0.5113
 SCF Error: norm([F,P])=      0.010513845807, max([F,P])=      0.001683363576
 orbitals (Q,E):
 ---------------
 A1/2 :127...146     ( 1.00    -0.2726)  ( 1.00    -0.2726)  ( 1.00    -0.2689)  ( 1.00    -0.2689)
                     ( 1.00    -0.2543)  ( 1.00    -0.2543)  ( 1.00    -0.2295)  ( 1.00    -0.2295)
                     ( 1.00    -0.2090)  ( 1.00    -0.2090)  ( 0.00    -0.0085)  ( 0.00    -0.0085)
                     ( 0.00    -0.0049)  ( 0.00    -0.0049)  ( 0.00     0.0008)  ( 0.00     0.0008)
                     ( 0.00     0.0150)  ( 0.00     0.0150)  ( 0.00     0.0173)  ( 0.00     0.0173)

 CYCLE    9
  SDIIS (wt  1.000):  0.0014 -0.0020 -0.0013  0.0210  0.0456  0.1482  0.3136  0.4734
  DIIS coefficients:  0.0014 -0.0020 -0.0013  0.0210  0.0456  0.1482  0.3136  0.4734
 SCF Error: norm([F,P])=      0.002783931987, max([F,P])=      0.000314680864
 orbitals (Q,E):
 ---------------
 A1/2 :127...146     ( 1.00    -0.2727)  ( 1.00    -0.2727)  ( 1.00    -0.2689)  ( 1.00    -0.2689)
                     ( 1.00    -0.2544)  ( 1.00    -0.2544)  ( 1.00    -0.2297)  ( 1.00    -0.2297)
                     ( 1.00    -0.2092)  ( 1.00    -0.2092)  ( 0.00    -0.0087)  ( 0.00    -0.0087)
                     ( 0.00    -0.0049)  ( 0.00    -0.0049)  ( 0.00     0.0008)  ( 0.00     0.0008)
                     ( 0.00     0.0150)  ( 0.00     0.0150)  ( 0.00     0.0173)  ( 0.00     0.0173)

 CYCLE   10
  SDIIS (wt  1.000):  0.0002 -0.0008 -0.0002 -0.0002  0.0011  0.0151  0.0593  0.2334  0.6920
  DIIS coefficients:  0.0002 -0.0008 -0.0002 -0.0002  0.0011  0.0151  0.0593  0.2334  0.6920
 SCF Error: norm([F,P])=      0.000714064651, max([F,P])=      0.000072439425
 orbitals (Q,E):
 ---------------
 A1/2 :127...146     ( 1.00    -0.2727)  ( 1.00    -0.2727)  ( 1.00    -0.2689)  ( 1.00    -0.2689)
                     ( 1.00    -0.2544)  ( 1.00    -0.2544)  ( 1.00    -0.2296)  ( 1.00    -0.2296)
                     ( 1.00    -0.2092)  ( 1.00    -0.2092)  ( 0.00    -0.0087)  ( 0.00    -0.0087)
                     ( 0.00    -0.0049)  ( 0.00    -0.0049)  ( 0.00     0.0008)  ( 0.00     0.0008)
                     ( 0.00     0.0150)  ( 0.00     0.0150)  ( 0.00     0.0173)  ( 0.00     0.0173)

 CYCLE   11
  SDIIS (wt  1.000):  0.0001 -0.0004  0.0000 -0.0011 -0.0016 -0.0006  0.0113  0.0920  0.3332  0.5672
  DIIS coefficients:  0.0001 -0.0004  0.0000 -0.0011 -0.0016 -0.0006  0.0113  0.0920  0.3332  0.5672
 SCF Error: norm([F,P])=      0.000187714094, max([F,P])=      0.000021623705
 orbitals (Q,E):
 ---------------
 A1/2 :127...146     ( 1.00    -0.2727)  ( 1.00    -0.2727)  ( 1.00    -0.2689)  ( 1.00    -0.2689)
                     ( 1.00    -0.2544)  ( 1.00    -0.2544)  ( 1.00    -0.2296)  ( 1.00    -0.2296)
                     ( 1.00    -0.2092)  ( 1.00    -0.2092)  ( 0.00    -0.0086)  ( 0.00    -0.0086)
                     ( 0.00    -0.0049)  ( 0.00    -0.0049)  ( 0.00     0.0008)  ( 0.00     0.0008)
                     ( 0.00     0.0150)  ( 0.00     0.0150)  ( 0.00     0.0173)  ( 0.00     0.0173)

 CYCLE   12
  SDIIS (wt  1.000): -0.0001 -0.0000 -0.0006 -0.0008 -0.0012  0.0020  0.0343  0.1283  0.2992  0.5390
  DIIS coefficients: -0.0001 -0.0000 -0.0006 -0.0008 -0.0012  0.0020  0.0343  0.1283  0.2992  0.5390
 SCF Error: norm([F,P])=      0.000057682047, max([F,P])=      0.000006246493
 orbitals (Q,E):
 ---------------
 A1/2 :127...146     ( 1.00    -0.2727)  ( 1.00    -0.2727)  ( 1.00    -0.2689)  ( 1.00    -0.2689)
                     ( 1.00    -0.2544)  ( 1.00    -0.2544)  ( 1.00    -0.2296)  ( 1.00    -0.2296)
                     ( 1.00    -0.2092)  ( 1.00    -0.2092)  ( 0.00    -0.0086)  ( 0.00    -0.0086)
                     ( 0.00    -0.0049)  ( 0.00    -0.0049)  ( 0.00     0.0008)  ( 0.00     0.0008)
                     ( 0.00     0.0150)  ( 0.00     0.0150)  ( 0.00     0.0173)  ( 0.00     0.0173)

 CYCLE   13
  SDIIS (wt  1.000):  0.0000 -0.0001 -0.0001 -0.0005 -0.0005  0.0074  0.0265  0.1079  0.3769  0.4825
  DIIS coefficients:  0.0000 -0.0001 -0.0001 -0.0005 -0.0005  0.0074  0.0265  0.1079  0.3769  0.4825
 SCF Error: norm([F,P])=      0.000031454643, max([F,P])=      0.000004461915
 orbitals (Q,E):
 ---------------
 A1/2 :127...146     ( 1.00    -0.2727)  ( 1.00    -0.2727)  ( 1.00    -0.2689)  ( 1.00    -0.2689)
                     ( 1.00    -0.2544)  ( 1.00    -0.2544)  ( 1.00    -0.2296)  ( 1.00    -0.2296)
                     ( 1.00    -0.2092)  ( 1.00    -0.2092)  ( 0.00    -0.0086)  ( 0.00    -0.0086)
                     ( 0.00    -0.0049)  ( 0.00    -0.0049)  ( 0.00     0.0008)  ( 0.00     0.0008)
                     ( 0.00     0.0150)  ( 0.00     0.0150)  ( 0.00     0.0173)  ( 0.00     0.0173)

 CYCLE   14
  SDIIS (wt  1.000):  0.0000  0.0000 -0.0000 -0.0001  0.0008  0.0017  0.0237  0.1323  0.2704  0.5712
  DIIS coefficients:  0.0000  0.0000 -0.0000 -0.0001  0.0008  0.0017  0.0237  0.1323  0.2704  0.5712
 SCF Error: norm([F,P])=      0.000008778447, max([F,P])=      0.000001103487
 orbitals (Q,E):
 ---------------
 A1/2 :127...146     ( 1.00    -0.2727)  ( 1.00    -0.2727)  ( 1.00    -0.2689)  ( 1.00    -0.2689)
                     ( 1.00    -0.2544)  ( 1.00    -0.2544)  ( 1.00    -0.2296)  ( 1.00    -0.2296)
                     ( 1.00    -0.2092)  ( 1.00    -0.2092)  ( 0.00    -0.0086)  ( 0.00    -0.0086)
                     ( 0.00    -0.0049)  ( 0.00    -0.0049)  ( 0.00     0.0008)  ( 0.00     0.0008)
                     ( 0.00     0.0150)  ( 0.00     0.0150)  ( 0.00     0.0173)  ( 0.00     0.0173)

 CYCLE   15
  SDIIS (wt  1.000):  0.0000 -0.0000 -0.0001 -0.0000 -0.0000  0.0074  0.0476  0.1059  0.2601  0.5792
  DIIS coefficients:  0.0000 -0.0000 -0.0001 -0.0000 -0.0000  0.0074  0.0476  0.1059  0.2601  0.5792
 SCF Error: norm([F,P])=      0.000001899112, max([F,P])=      0.000000266301
 orbitals (Q,E):
 ---------------
 A1/2 :127...146     ( 1.00    -0.2727)  ( 1.00    -0.2727)  ( 1.00    -0.2689)  ( 1.00    -0.2689)
                     ( 1.00    -0.2544)  ( 1.00    -0.2544)  ( 1.00    -0.2296)  ( 1.00    -0.2296)
                     ( 1.00    -0.2092)  ( 1.00    -0.2092)  ( 0.00    -0.0086)  ( 0.00    -0.0086)
                     ( 0.00    -0.0049)  ( 0.00    -0.0049)  ( 0.00     0.0008)  ( 0.00     0.0008)
                     ( 0.00     0.0150)  ( 0.00     0.0150)  ( 0.00     0.0173)  ( 0.00     0.0173)

 SCF CONVERGED
 cosmo_calcen: 0.5 (esolb+esolc) (Hartrees) =   -0.005947

 Solvation energy (screening term,uncorrected) =     -3.731808 kcal/mol

 Solvation energy (dispersion and cavitation terms) =      1.465568 kcal/mol
 Solvation Energy Contributions (Hartrees)
          esola   esolb+esolc
     0.00594701   -0.01189403
 esol last cycle   -0.00594701

 CYCLE   16
1
 ***************************************************************************************************



                                                *******************
                                                *  R E S U L T S  *
                                                *******************
  
 *** Using FIT density in Focky
  SDIIS (wt  1.000): -0.0000 -0.0000 -0.0001 -0.0003  0.0016  0.0143  0.0353  0.0946  0.3132  0.5415
  DIIS coefficients: -0.0000 -0.0000 -0.0001 -0.0003  0.0016  0.0143  0.0353  0.0946  0.3132  0.5415
 SCF Error: norm([F,P])=      0.000000663346, max([F,P])=      0.000000081327

 Scaled ZORA Orbital Energies, per Irrep and Spin:
 =================================================
                        Occup              E (au)              E (eV)       Diff (eV) with prev. cycle
                        -----      --------------------        ------       --------------------------
 A1/2
             127        1.000     -0.27270854945107E+00        -7.421              -2.20E-07
             128        1.000     -0.27270854944869E+00        -7.421              -2.20E-07
             129        1.000     -0.26888103094718E+00        -7.317               5.65E-07
             130        1.000     -0.26888103094577E+00        -7.317               5.65E-07
             131        1.000     -0.25438446085746E+00        -6.922              -3.04E-07
             132        1.000     -0.25438446085548E+00        -6.922              -3.04E-07
             133        1.000     -0.22961997299777E+00        -6.248              -9.09E-07
             134        1.000     -0.22961997299538E+00        -6.248              -9.09E-07
             135        1.000     -0.20920301145682E+00        -5.693              -8.06E-07
             136        1.000     -0.20920301145677E+00        -5.693              -8.06E-07
             137        0.000     -0.86384270214651E-02        -0.235
             138        0.000     -0.86384270203441E-02        -0.235
             139        0.000     -0.49339683925705E-02        -0.134
             140        0.000     -0.49339683922433E-02        -0.134
             141        0.000      0.81298233791796E-03         0.022
             142        0.000      0.81298234725952E-03         0.022
             143        0.000      0.15007804280903E-01         0.408
             144        0.000      0.15007804285576E-01         0.408
             145        0.000      0.17300712251731E-01         0.471
             146        0.000      0.17300712253316E-01         0.471
  
 HOMO :      136 A1/2             -0.20920301145677E+00
 LUMO :      137 A1/2             -0.86384270214651E-02
  
 cosmo_calcen: 0.5 (esolb+esolc) (Hartrees) =   -0.005947

 Solvation energy (screening term,uncorrected) =     -3.731809 kcal/mol

 Solvation energy (dispersion and cavitation terms) =      1.465568 kcal/mol
 Solvation Energy Contributions (Hartrees)
          esola   esolb+esolc
     0.00594702   -0.01189403
 esol last cycle   -0.00594702


 All Electron Calculation, thus no Orbital Energies of the Core Orbitals are calculated


 Fit test: (difference of exact and fit density, squared integrated, result summed over spins)
         Sum-of-Fragments:                             0.00000000001444
         Orthogonalized Fragments:                     0.00004838801321
         SCF:                                          0.00011683742380



 ==========================
 Electron Density at Nuclei
 ==========================
  
 The electron density is calculated at points on a small sphere around the center of a nucleus.
 The printed electron density is the average electron density on these points.
 The radius of the sphere is the printed approximate finite nuclear radius.
 Note: ZORA-4 density is used, which includes small component density

         Atom        Nuclear Radius (Angstrom)             Electron Density (a.u.)
         ----        -------------------------             -----------------------
     1)   O                 0.0000345546                              317.90778
     2)   P                 0.0000412627                             2356.45836
     3)   O                 0.0000345546                              317.96713
     4)   O                 0.0000345546                              317.92701
     5)   C                 0.0000320678                              127.91860
     6)   C                 0.0000320678                              127.92054
     7)   C                 0.0000320678                              127.89020
     8)   C                 0.0000320678                              127.88489
     9)   C                 0.0000320678                              127.89393
    10)   C                 0.0000320678                              127.88566
    11)   H                 0.0000181514                                0.48335
    12)   H                 0.0000181514                                0.48492
    13)   H                 0.0000181514                                0.48327
    14)   H                 0.0000181514                                0.48498
    15)   H                 0.0000181514                                0.48226
    16)   H                 0.0000181514                                0.48313
    17)   H                 0.0000181514                                0.48352
    18)   H                 0.0000181514                                0.48423
    19)   H                 0.0000181514                                0.48296
    20)   H                 0.0000181514                                0.48216
    21)   H                 0.0000181514                                0.48320
    22)   H                 0.0000181514                                0.48509
    23)   C                 0.0000320678                              127.91640
    24)   C                 0.0000320678                              127.83642
    25)   H                 0.0000181514                                0.48357
    26)   H                 0.0000181514                                0.48463
    27)   C                 0.0000320678                              127.87870
    28)   C                 0.0000320678                              127.88654
    29)   H                 0.0000181514                                0.48379
    30)   C                 0.0000320678                              127.88083
    31)   H                 0.0000181514                                0.49173
    32)   C                 0.0000320678                              127.88521
    33)   H                 0.0000181514                                0.48428
    34)   H                 0.0000181514                                0.48601
    35)   H                 0.0000181514                                0.48424
    36)   H                 0.0000181514                                0.48614
    37)   H                 0.0000181514                                0.48582
    38)   H                 0.0000181514                                0.48420
    39)   H                 0.0000181514                                0.48410
    40)   H                 0.0000181514                                0.48393
    41)   H                 0.0000181514                                0.48641



 =======================================
 M U L L I K E N   P O P U L A T I O N S
 =======================================
  
 The survey below gives for each atom:
 a) the total charge (Z minus electrons)
 b) the net spin polarization (nr of electrons spin-A minus spin-B)
 c) for each spin the atomic electron valence density (integrated) per L-value.

 Atom              Charge    Spin density          S         P         D         F
 ----              ------    ------------       ------    ------    ------    ------
 1 O              -0.5094                       3.8282    4.6136    0.0622    0.0054
 2 P               0.7039                       5.5332    8.2076    0.4512    0.1042
 3 O              -0.5366                       3.8280    4.6426    0.0606    0.0054
 4 O              -0.5401                       3.8245    4.6502    0.0599    0.0055
 5 C               0.2525                       3.1511    2.4674    0.1221    0.0068
 6 C               0.2877                       3.1412    2.4410    0.1232    0.0069
 7 C               0.4842                       2.9715    2.5008    0.0417    0.0017
 8 C               0.4266                       2.9795    2.5502    0.0420    0.0018
 9 C               0.4581                       2.9682    2.5300    0.0420    0.0017
 10 C              0.4275                       2.9797    2.5491    0.0420    0.0018
 11 H             -0.1393                       1.0544    0.0804    0.0044    0.0000
 12 H             -0.1358                       1.0460    0.0853    0.0045    0.0000
 13 H             -0.1757                       1.0905    0.0810    0.0043    0.0000
 14 H             -0.1389                       1.0533    0.0812    0.0044    0.0000
 15 H             -0.1250                       1.0406    0.0801    0.0043    0.0000
 16 H             -0.1612                       1.0776    0.0793    0.0043    0.0000
 17 H             -0.1327                       1.0474    0.0809    0.0044    0.0000
 18 H             -0.1559                       1.0700    0.0815    0.0044    0.0000
 19 H             -0.1661                       1.0825    0.0794    0.0043    0.0000
 20 H             -0.1251                       1.0408    0.0801    0.0043    0.0000
 21 H             -0.1577                       1.0742    0.0793    0.0043    0.0000
 22 H             -0.1411                       1.0556    0.0811    0.0044    0.0000
 23 C              0.5039                       3.0659    2.3187    0.1057    0.0057
 24 C             -0.0057                       3.2308    2.6741    0.0964    0.0045
 25 H             -0.1564                       1.0736    0.0785    0.0043    0.0000
 26 H             -0.1289                       1.0432    0.0815    0.0043    0.0000
 27 C              0.4833                       2.9653    2.5061    0.0435    0.0018
 28 C              0.4668                       2.9687    2.5190    0.0437    0.0018
 29 H             -0.1405                       1.0548    0.0814    0.0043    0.0000
 30 C              0.3909                       2.9851    2.5801    0.0421    0.0017
 31 H             -0.1679                       1.0865    0.0770    0.0045    0.0000
 32 C              0.4691                       2.9648    2.5205    0.0438    0.0018
 33 H             -0.1751                       1.0903    0.0804    0.0044    0.0000
 34 H             -0.1296                       1.0420    0.0831    0.0044    0.0000
 35 H             -0.1637                       1.0787    0.0807    0.0043    0.0000
 36 H             -0.1692                       1.0820    0.0828    0.0044    0.0000
 37 H             -0.1391                       1.0531    0.0817    0.0043    0.0000
 38 H             -0.1676                       1.0823    0.0809    0.0044    0.0000
 39 H             -0.1548                       1.0702    0.0802    0.0044    0.0000
 40 H             -0.1601                       1.0765    0.0793    0.0043    0.0000
 41 H             -0.1553                       1.0687    0.0822    0.0044    0.0000

 Populations of individual BAS functions
 ----------------------------------------
 1 O            0.0000  0.0000  0.0005  0.0018  0.4565  1.6697 -0.1636  1.0081  0.8552  0.0031
                0.0037  0.0036  0.1955  0.2601  0.2513  0.9114  1.0370  1.0048  0.1591  0.4173
                0.3666  0.0314  0.0131  0.0189 -0.0074  0.0073 -0.0012  0.0109  0.0085  0.0077
               -0.0067  0.0007 -0.0022 -0.0081 -0.0040  0.0008 -0.0024
 3 O            0.0000  0.0000  0.0005  0.0017  0.4584  1.6687 -0.1647  1.0137  0.8497  0.0033
                0.0034  0.0034  0.2235  0.2462  0.2420  0.9439  0.9859  0.9784  0.2901  0.3770
                0.3453  0.0137  0.0162  0.0101  0.0014  0.0122  0.0070  0.0023  0.0017  0.0019
                0.0011  0.0010 -0.0018  0.0005  0.0016 -0.0009 -0.0019
 4 O            0.0000  0.0000  0.0005  0.0016  0.4593  1.6697 -0.1667  1.0133  0.8468  0.0031
                0.0034  0.0036  0.2028  0.2471  0.2633  0.9083  0.9841  1.0174  0.1939  0.3761
                0.4472  0.0267  0.0185  0.0120  0.0007  0.0099 -0.0080  0.0085  0.0060  0.0081
               -0.0003  0.0009 -0.0064  0.0000  0.0024 -0.0047 -0.0091
 2 P            0.0000  0.0000  0.0006  0.0080  0.5307  1.4136  1.5126  0.5133  0.0080  0.0079
                0.0080  0.7505  0.7511  0.7558  1.2637  1.2596  1.2556  0.3287  1.2614 -0.0358
                0.2645  0.2556  0.3531  0.4112  0.3398  0.6113 -0.0517 -0.0380  0.0016  0.0535
                0.1300  0.0945  0.0517  0.0780  0.0434  0.0032  0.0240  0.0185  0.0218  0.0211
                0.0081 -0.0034  0.0127  0.0068 -0.0086
 5 C            0.0000 -0.0000  0.0006 -0.0076  0.4699  1.5895  0.3139  0.9147 -0.1300  0.0022
                0.0026  0.0026 -0.1479 -0.1663 -0.1940  0.7978  0.9155  0.9007  0.1109  0.1221
                0.1212  0.0147  0.0255  0.0257  0.0129  0.0262  0.0171 -0.0006  0.0010  0.0010
                0.0015  0.0011  0.0013 -0.0009  0.0007  0.0014  0.0001
 6 C            0.0000 -0.0000  0.0006 -0.0076  0.4703  1.5894  0.3000  0.9193 -0.1308  0.0022
                0.0027  0.0026 -0.1599 -0.1759 -0.2046  0.7857  0.9272  0.9072  0.1082  0.1233
                0.1222  0.0172  0.0260  0.0287  0.0134  0.0249  0.0130  0.0006  0.0015  0.0019
                0.0007  0.0010  0.0011 -0.0006  0.0012  0.0008 -0.0013
 7 C            0.0000 -0.0000  0.0007 -0.0099  0.4835  1.5748  0.0897  0.9657 -0.1330  0.0026
                0.0026  0.0024 -0.3248 -0.2795 -0.2402  1.0116  0.9970  0.9253  0.1349  0.1376
                0.1313  0.0017  0.0114  0.0103  0.0030  0.0089  0.0064 -0.0015  0.0006 -0.0000
                0.0007  0.0004  0.0014 -0.0011 -0.0002  0.0008  0.0007
 8 C            0.0000 -0.0000  0.0007 -0.0098  0.4832  1.5751  0.0986  0.9646 -0.1329  0.0024
                0.0025  0.0026 -0.2186 -0.2673 -0.2781  0.9424  0.9530  1.0032  0.1368  0.1327
                0.1387  0.0050  0.0109  0.0076  0.0038  0.0123  0.0024  0.0000  0.0008  0.0003
                0.0008  0.0004 -0.0005 -0.0004  0.0014  0.0001 -0.0012
 9 C            0.0000 -0.0000  0.0007 -0.0099  0.4837  1.5745  0.0847  0.9675 -0.1330  0.0025
                0.0026  0.0025 -0.2492 -0.2882 -0.2523  0.9617  0.9957  0.9482  0.1368  0.1373
                0.1325  0.0060  0.0067  0.0090  0.0035  0.0131  0.0036  0.0001  0.0000  0.0003
               -0.0002  0.0003  0.0005 -0.0009  0.0006  0.0013 -0.0004
 10 C           0.0000 -0.0000  0.0007 -0.0100  0.4838  1.5745  0.0986  0.9648 -0.1327  0.0025
                0.0024  0.0025 -0.2423 -0.2607 -0.2643  0.9703  0.9467  0.9841  0.1381  0.1322
                0.1375  0.0032  0.0096  0.0100  0.0044  0.0129  0.0019 -0.0011 -0.0000  0.0007
                0.0008  0.0004  0.0006 -0.0001  0.0014  0.0006 -0.0015
 23 C           0.0000 -0.0000  0.0006 -0.0078  0.4716  1.5883  0.2037  0.9430 -0.1336  0.0019
                0.0027  0.0026 -0.1916 -0.2972 -0.2535  0.7217  0.9898  0.9748  0.1009  0.1317
                0.1350  0.0178  0.0245  0.0197  0.0156  0.0175  0.0106  0.0029  0.0007  0.0014
               -0.0004  0.0004 -0.0007  0.0014  0.0013 -0.0003 -0.0008
 24 C           0.0000 -0.0000  0.0006 -0.0079  0.4726  1.5835  0.4313  0.8717 -0.1210  0.0027
                0.0026  0.0026 -0.1500 -0.1224 -0.1460  0.9163  0.9034  0.9018  0.1197  0.1212
                0.1221  0.0124  0.0182  0.0195  0.0132  0.0193  0.0138  0.0005  0.0005  0.0002
                0.0001  0.0003  0.0007  0.0004  0.0006  0.0004  0.0007
 27 C           0.0000 -0.0000  0.0007 -0.0096  0.4819  1.5760  0.0879  0.9603 -0.1318  0.0026
                0.0025  0.0024 -0.3052 -0.2765 -0.2249  1.0098  0.9803  0.9100  0.1367  0.1369
                0.1317  0.0053  0.0052  0.0097  0.0063  0.0088  0.0081  0.0000 -0.0005 -0.0007
               -0.0003  0.0002  0.0008  0.0001 -0.0003  0.0008  0.0016
 28 C           0.0000 -0.0000  0.0007 -0.0096  0.4820  1.5753  0.0936  0.9572 -0.1305  0.0026
                0.0023  0.0025 -0.2795 -0.2183 -0.2862  0.9968  0.8998  0.9934  0.1377  0.1313
                0.1364  0.0065  0.0082  0.0053  0.0082  0.0110  0.0045  0.0001 -0.0006 -0.0003
                0.0007  0.0002 -0.0004  0.0018  0.0011 -0.0005 -0.0003
 30 C           0.0000 -0.0000  0.0007 -0.0101  0.4845  1.5737  0.1037  0.9651 -0.1325  0.0025
                0.0023  0.0025 -0.2719 -0.1762 -0.2701  0.9935  0.8907  0.9957  0.1388  0.1340
                0.1382  0.0058  0.0058  0.0064  0.0089  0.0121  0.0031 -0.0001 -0.0010 -0.0000
                0.0007  0.0002 -0.0002  0.0020  0.0015 -0.0005 -0.0009
 32 C           0.0000 -0.0000  0.0007 -0.0097  0.4824  1.5752  0.0866  0.9608 -0.1314  0.0024
                0.0025  0.0025 -0.2174 -0.2746 -0.2815  0.9019  0.9910  0.9871  0.1317  0.1382
                0.1366  0.0082  0.0112  0.0082  0.0044  0.0053  0.0064  0.0018  0.0011  0.0007
               -0.0005  0.0002 -0.0007 -0.0003 -0.0004 -0.0003  0.0002
 11 H           0.0000 -0.0000  0.0006 -0.0275  0.4048  0.1978  0.4787  0.0296  0.0262  0.0246
                0.0029  0.0012  0.0006 -0.0019  0.0006  0.0010
 12 H           0.0000 -0.0000  0.0008 -0.0339  0.4208  0.1422  0.5161  0.0291  0.0305  0.0257
                0.0010  0.0006  0.0009  0.0031  0.0010 -0.0022
 13 H           0.0000 -0.0000  0.0005 -0.0260  0.4444  0.2052  0.4664  0.0264  0.0294  0.0252
               -0.0002  0.0009  0.0006  0.0024  0.0007 -0.0001
 14 H           0.0000 -0.0000  0.0007 -0.0301  0.4224  0.1631  0.4973  0.0237  0.0242  0.0333
               -0.0023  0.0006  0.0011  0.0000  0.0010  0.0039
 15 H           0.0000 -0.0000  0.0008 -0.0336  0.4275  0.1287  0.5172  0.0275  0.0264  0.0263
                0.0038  0.0011  0.0009 -0.0010  0.0006 -0.0012
 16 H           0.0000 -0.0000  0.0006 -0.0272  0.4359  0.1924  0.4758  0.0255  0.0253  0.0286
               -0.0010  0.0009  0.0007  0.0017  0.0006  0.0013
 17 H           0.0000 -0.0000  0.0007 -0.0303  0.4087  0.1719  0.4964  0.0275  0.0260  0.0273
                0.0048  0.0012  0.0012 -0.0022  0.0006 -0.0013
 18 H           0.0000 -0.0000  0.0007 -0.0313  0.4623  0.1357  0.5025  0.0265  0.0306  0.0243
               -0.0005  0.0008  0.0006  0.0033  0.0009 -0.0007
 19 H           0.0000 -0.0000  0.0005 -0.0256  0.4301  0.2119  0.4656  0.0244  0.0293  0.0257
               -0.0027  0.0009  0.0009  0.0023  0.0006  0.0023
 20 H           0.0000 -0.0000  0.0008 -0.0335  0.4264  0.1308  0.5163  0.0275  0.0260  0.0266
                0.0034  0.0011  0.0008 -0.0014  0.0007 -0.0004
 21 H           0.0000 -0.0000  0.0006 -0.0268  0.4205  0.2072  0.4727  0.0252  0.0251  0.0289
               -0.0019  0.0008  0.0009  0.0018  0.0007  0.0021
 22 H           0.0000 -0.0000  0.0007 -0.0313  0.4549  0.1238  0.5075  0.0286  0.0240  0.0285
                0.0011  0.0007  0.0007 -0.0001  0.0008  0.0012
 25 H           0.0000 -0.0000  0.0006 -0.0270  0.4132  0.2147  0.4721  0.0280  0.0229  0.0276
                0.0011  0.0006  0.0005 -0.0003  0.0006  0.0017
 26 H           0.0000 -0.0000  0.0008 -0.0341  0.4294  0.1261  0.5209  0.0252  0.0244  0.0318
               -0.0028  0.0004  0.0014  0.0002  0.0008  0.0043
 29 H           0.0000 -0.0000  0.0008 -0.0322  0.4396  0.1382  0.5084  0.0319  0.0235  0.0259
                0.0053  0.0014  0.0013 -0.0022  0.0003 -0.0018
 31 H           0.0000 -0.0000  0.0005 -0.0238  0.4510  0.2021  0.4567  0.0215  0.0269  0.0287
               -0.0021  0.0004  0.0011 -0.0007  0.0009  0.0049
 33 H           0.0000 -0.0000  0.0006 -0.0264  0.4403  0.2073  0.4686  0.0282  0.0240  0.0281
                0.0008  0.0006  0.0006  0.0007  0.0006  0.0011
 34 H           0.0000 -0.0000  0.0009 -0.0355  0.4719  0.0702  0.5345  0.0332  0.0239  0.0260
                0.0052  0.0015  0.0013 -0.0025  0.0003 -0.0014
 35 H           0.0000 -0.0000  0.0007 -0.0289  0.4408  0.1811  0.4850  0.0258  0.0240  0.0309
               -0.0028  0.0003  0.0015 -0.0008  0.0010  0.0052
 36 H           0.0000 -0.0000  0.0008 -0.0310  0.4742  0.1382  0.4999  0.0270  0.0308  0.0250
               -0.0015  0.0012  0.0003  0.0053  0.0015 -0.0025
 37 H           0.0000 -0.0000  0.0009 -0.0362  0.5068  0.0415  0.5401  0.0324  0.0249  0.0243
                0.0053  0.0016  0.0013 -0.0025  0.0002 -0.0016
 38 H           0.0000 -0.0000  0.0006 -0.0273  0.4360  0.1977  0.4753  0.0275  0.0283  0.0251
                0.0002  0.0006  0.0006  0.0007  0.0006  0.0016
 39 H           0.0000 -0.0000  0.0006 -0.0277  0.4103  0.2104  0.4767  0.0237  0.0285  0.0279
                0.0007  0.0006  0.0006  0.0012  0.0006  0.0008
 40 H           0.0000 -0.0000  0.0007 -0.0293  0.4489  0.1672  0.4890  0.0237  0.0257  0.0299
               -0.0023  0.0003  0.0015 -0.0019  0.0013  0.0055
 41 H           0.0000 -0.0000  0.0007 -0.0310  0.4489  0.1497  0.5004  0.0238  0.0324  0.0260
               -0.0009  0.0011  0.0003  0.0051  0.0015 -0.0027

 Gross Charges per Atom (Z minus electrons)
 ==========================================
            -0.5094    0.7039   -0.5366   -0.5401    0.2525    0.2877    0.4842    0.4266    0.4581    0.4275
            -0.1393   -0.1358   -0.1757   -0.1389   -0.1250   -0.1612   -0.1327   -0.1559   -0.1661   -0.1251
            -0.1577   -0.1411    0.5039   -0.0057   -0.1564   -0.1289    0.4833    0.4668   -0.1405    0.3909
            -0.1679    0.4691   -0.1751   -0.1296   -0.1637   -0.1692   -0.1391   -0.1676   -0.1548   -0.1601
            -0.1553
 Net Total: -0.00000000


 Atom-Atom Population Matrix (off-diagonal elements not doubled)
 ===============================================================

     1 :     8.1759
     2 :     0.2998   13.4574
     3 :    -0.0310    0.3144    8.2137
     4 :    -0.0337    0.3139   -0.0467    8.2082
     5 :    -0.0079   -0.0078    0.2044   -0.0195    4.6312
     6 :    -0.0015   -0.0138   -0.0242    0.2170    0.3748    4.5924
     7 :     0.0021    0.0010   -0.0274   -0.0135    0.3598   -0.0227    4.1780
     8 :    -0.0006   -0.0023   -0.0313    0.0034    0.3653   -0.0198   -0.0298    4.2036
     9 :    -0.0007   -0.0051   -0.0122   -0.0309   -0.0232    0.3623    0.0000    0.0074    4.1921
    10 :     0.0004    0.0017    0.0038   -0.0303   -0.0217    0.3616    0.0077   -0.0058   -0.0248    4.2016
    11 :     0.0006   -0.0065    0.0125    0.0013   -0.0151   -0.0129    0.3514   -0.0141    0.0008    0.0004
             0.9930
    12 :    -0.0001    0.0010   -0.0081    0.0056    0.0115   -0.0198    0.3643    0.0052   -0.0010   -0.0070
            -0.0730    0.9646
    13 :     0.0016    0.0001   -0.0142   -0.0015   -0.0163    0.0056    0.3717   -0.0227   -0.0017   -0.0031
            -0.0771   -0.0771    1.0289
    14 :     0.0000   -0.0001   -0.0157    0.0013   -0.0067   -0.0263    0.0011    0.3674    0.0084   -0.0002
             0.0009   -0.0082    0.0031    0.9824
    15 :     0.0002   -0.0006    0.0111    0.0002   -0.0159   -0.0088   -0.0095    0.3823   -0.0019   -0.0005
            -0.0080    0.0041   -0.0012   -0.0850    0.9551
    16 :    -0.0003   -0.0031   -0.0152   -0.0018   -0.0110    0.0080   -0.0191    0.3726   -0.0046    0.0005
            -0.0048    0.0025   -0.0168   -0.0638   -0.0811    0.9994
    17 :     0.0002   -0.0051    0.0009    0.0132   -0.0132   -0.0133    0.0008    0.0005    0.3650   -0.0125
             0.0015   -0.0003   -0.0007   -0.0003   -0.0071   -0.0005    0.9585
    18 :    -0.0006   -0.0075    0.0073   -0.0115   -0.0204   -0.0002    0.0003   -0.0066    0.3608    0.0050
            -0.0002    0.0009   -0.0004   -0.0217    0.0037    0.0009   -0.0699    0.9913
    19 :    -0.0003   -0.0001   -0.0012   -0.0150    0.0048   -0.0156   -0.0017   -0.0032    0.3761   -0.0200
            -0.0007   -0.0006    0.0006    0.0001    0.0011   -0.0017   -0.0742   -0.0722    1.0045
    20 :    -0.0000   -0.0014    0.0003    0.0112   -0.0076   -0.0137   -0.0038    0.0010   -0.0085    0.3789
            -0.0054    0.0050    0.0009    0.0028   -0.0157    0.0002   -0.0103    0.0032   -0.0012    0.9568
    21 :     0.0002   -0.0012   -0.0017   -0.0138    0.0076   -0.0097   -0.0049    0.0002   -0.0191    0.3714
            -0.0005    0.0015   -0.0018   -0.0009    0.0001    0.0008   -0.0011    0.0034   -0.0174   -0.0810
             0.9909
    22 :    -0.0002   -0.0028    0.0010   -0.0143   -0.0281   -0.0092    0.0111    0.0006    0.0030    0.3660
            -0.0024   -0.0307    0.0011   -0.0002    0.0026   -0.0003    0.0005   -0.0087    0.0039   -0.0865
            -0.0654    0.9986
    23 :     0.2500   -0.0397   -0.0036   -0.0035    0.0017    0.0011    0.0006   -0.0000   -0.0002   -0.0000
            -0.0002    0.0000    0.0010    0.0002    0.0001   -0.0002    0.0000   -0.0004   -0.0000   -0.0000
             0.0000    0.0005    4.3690
    24 :    -0.0266   -0.0072    0.0001    0.0001   -0.0007    0.0001    0.0003   -0.0000    0.0001   -0.0001
            -0.0002    0.0008    0.0003   -0.0000    0.0000    0.0000    0.0000   -0.0000    0.0000    0.0000
            -0.0000    0.0000    0.3598    4.7966
    25 :    -0.0122   -0.0057   -0.0005    0.0004   -0.0003    0.0001   -0.0000   -0.0001    0.0000   -0.0002
            -0.0001   -0.0001    0.0001   -0.0000    0.0000   -0.0000    0.0000   -0.0003    0.0001   -0.0000
            -0.0002    0.0002   -0.0062    0.0061    0.9873
    26 :    -0.0165   -0.0007   -0.0003    0.0003    0.0000    0.0004    0.0004    0.0000    0.0000    0.0000
             0.0002   -0.0025    0.0003    0.0000    0.0000   -0.0000   -0.0000    0.0000   -0.0000   -0.0000
             0.0001    0.0001   -0.0190   -0.0210   -0.0731    0.9588
    27 :    -0.0099    0.0004    0.0007   -0.0002   -0.0003   -0.0002    0.0012    0.0000   -0.0000    0.0001
             0.0007   -0.0003   -0.0008    0.0000    0.0000   -0.0001    0.0000    0.0000   -0.0000    0.0000
             0.0000   -0.0002   -0.0208    0.3880    0.0013   -0.0016    4.1612
    28 :    -0.0007   -0.0003    0.0023   -0.0000   -0.0007    0.0000    0.0003   -0.0000   -0.0001    0.0000
             0.0003    0.0001    0.0013    0.0000   -0.0000   -0.0001   -0.0000   -0.0001   -0.0000   -0.0000
             0.0000   -0.0001   -0.0069    0.3701   -0.0023    0.0003   -0.0215    4.1820
    29 :     0.0143    0.0025    0.0003   -0.0000    0.0002   -0.0001   -0.0000    0.0000    0.0000    0.0000
             0.0000   -0.0000   -0.0000    0.0000   -0.0000    0.0000   -0.0000   -0.0000    0.0000    0.0000
             0.0000   -0.0000   -0.0116   -0.0035   -0.0703   -0.0968   -0.0031    0.0011    0.9823
    30 :    -0.0333    0.0018   -0.0006    0.0013   -0.0000    0.0001   -0.0001   -0.0000    0.0000   -0.0000
             0.0001   -0.0003    0.0001    0.0000    0.0000   -0.0000   -0.0000   -0.0000    0.0000   -0.0000
             0.0000   -0.0001    0.3489   -0.0256    0.3698    0.3990   -0.0038   -0.0004    0.3689    4.2408
    31 :    -0.0598    0.0096   -0.0015   -0.0015    0.0011    0.0004    0.0003    0.0000   -0.0003   -0.0001
             0.0001   -0.0006    0.0003    0.0001    0.0001   -0.0000   -0.0001   -0.0004    0.0000    0.0000
            -0.0000   -0.0000    0.3759   -0.0534   -0.0341    0.0167    0.0003   -0.0247   -0.0270   -0.0499
             1.0518
    32 :     0.0031    0.0010   -0.0003    0.0000    0.0000    0.0001   -0.0000    0.0000    0.0000   -0.0000
             0.0000   -0.0002   -0.0001    0.0000    0.0000   -0.0000   -0.0000    0.0000   -0.0000   -0.0000
            -0.0000    0.0000   -0.0134    0.3734   -0.0001   -0.0028   -0.0168   -0.0199   -0.0037    0.0016
            -0.0130    4.1780
[...]
        2            delta   0.3340094E+01  0.3388694E+01  0.3542562E+01
 iter.  3 V(1) measurement   0.9635174E+01  0.9702603E+01  0.9973406E+01
        3            delta   0.2982873E-01  0.3737364E-01  0.4121818E-01
 iter.  4 V(1) measurement   0.9635689E+01  0.9703438E+01  0.9974342E+01
        4            delta   0.5155264E-03  0.8347224E-03  0.9357882E-03
 iter.  5 V(1) measurement   0.9635733E+01  0.9703492E+01  0.9974398E+01
        5            delta   0.4325130E-04  0.5405088E-04  0.5630708E-04
 *** convergence reached



                                                *******************
                                                *  R E S U L T S  *
                                                *******************
  



 ========================================
  Nucleus 4 (P) perturbing nucleus 11 (C)
 ========================================
  
 Internal CPL numbering of atoms:  P(4) perturbing  C(11)
 ADF-GUI atoms:  P(2) perturbing  C(23)
  
 ---------------------------------
   Cartesian Axis Representation  
 ---------------------------------

 ----- k (10^19 kg m-2 s-2 A-2) ----         ------------- j (hz) -------------

 ZORA FC+SD spin contribution (+ PSO cross terms):                       
  isotropic    k=      21.708                              j=      26.576
      21.604      -1.691       3.269             26.448      -2.070       4.002
      -1.854      21.417      -1.253             -2.269      26.220      -1.534
       3.681      -1.306      22.103              4.507      -1.599      27.060

 total calculated spin-spin coupling:                                    
  isotropic    k=      21.708                              j=      26.576
      21.604      -1.691       3.269             26.448      -2.070       4.002
      -1.854      21.417      -1.253             -2.269      26.220      -1.534
       3.681      -1.306      22.103              4.507      -1.599      27.060
 
 ---------------------------------
   Principal Axis Representation  
 ---------------------------------

 ----- k (10^19 kg m-2 s-2 A-2) ----         ------------- j (hz) -------------

 ZORA FC+SD spin contribution (+ PSO cross terms):                       
  isotropic    k=      21.708                              j=      26.576
      18.296      -0.013      -0.223             22.399      -0.016      -0.273
       0.013      20.542       0.004              0.016      25.148       0.004
       0.223      -0.004      26.286              0.273      -0.004      32.181

 total calculated spin-spin coupling:                                    
  isotropic    k=      21.708                              j=      26.576
      18.296      -0.013      -0.223             22.399      -0.016      -0.273
       0.013      20.542       0.004              0.016      25.148       0.004
       0.223      -0.004      26.286              0.273      -0.004      32.181
 
 Principal Axis System (u,v,w) expressed in Cartesians:
 (taken as eigenvectors of the symmetric part of the coupling tensor,
  sorted in ascending order of eigenvalues = principal values)
        u         v         w
        0.756     0.145     0.639
        0.170     0.899    -0.405
       -0.633     0.414     0.654



 ========================================
  Nucleus 4 (P) perturbing nucleus 12 (C)
 ========================================
  
 Internal CPL numbering of atoms:  P(4) perturbing  C(12)
 ADF-GUI atoms:  P(2) perturbing  C(24)
  
 ---------------------------------
   Cartesian Axis Representation  
 ---------------------------------

 ----- k (10^19 kg m-2 s-2 A-2) ----         ------------- j (hz) -------------

 ZORA FC+SD spin contribution (+ PSO cross terms):                       
  isotropic    k=       1.687                              j=       2.065
       1.304      -0.129       0.373              1.596      -0.158       0.456
      -0.117       2.182       0.211             -0.143       2.671       0.258
       0.438       0.149       1.575              0.537       0.182       1.928

 total calculated spin-spin coupling:                                    
  isotropic    k=       1.687                              j=       2.065
       1.304      -0.129       0.373              1.596      -0.158       0.456
      -0.117       2.182       0.211             -0.143       2.671       0.258
       0.438       0.149       1.575              0.537       0.182       1.928
 
 ---------------------------------
   Principal Axis Representation  
 ---------------------------------

 ----- k (10^19 kg m-2 s-2 A-2) ----         ------------- j (hz) -------------

 ZORA FC+SD spin contribution (+ PSO cross terms):                       
  isotropic    k=       1.687                              j=       2.065
       0.977       0.030       0.008              1.196       0.036       0.010
      -0.030       1.852       0.034             -0.036       2.268       0.041
      -0.008      -0.034       2.231             -0.010      -0.041       2.731

 total calculated spin-spin coupling:                                    
  isotropic    k=       1.687                              j=       2.065
       0.977       0.030       0.008              1.196       0.036       0.010
      -0.030       1.852       0.034             -0.036       2.268       0.041
      -0.008      -0.034       2.231             -0.010      -0.041       2.731
 
 Principal Axis System (u,v,w) expressed in Cartesians:
 (taken as eigenvectors of the symmetric part of the coupling tensor,
  sorted in ascending order of eigenvalues = principal values)
        u         v         w
       -0.792     0.611     0.017
       -0.169    -0.191    -0.967
        0.587     0.768    -0.254



 ========================================
  Nucleus 4 (P) perturbing nucleus 29 (H)
 ========================================
  
 Internal CPL numbering of atoms:  P(4) perturbing  H(29)
 ADF-GUI atoms:  P(2) perturbing  H(25)
  
 ---------------------------------
   Cartesian Axis Representation  
 ---------------------------------

 ----- k (10^19 kg m-2 s-2 A-2) ----         ------------- j (hz) -------------

 ZORA FC+SD spin contribution (+ PSO cross terms):                       
  isotropic    k=      -0.060                              j=      -0.294
      -0.172       0.161       0.165             -0.836       0.782       0.804
       0.145      -0.001      -0.175              0.707      -0.004      -0.851
       0.201      -0.219      -0.009              0.980      -1.067      -0.043

 total calculated spin-spin coupling:                                    
  isotropic    k=      -0.060                              j=      -0.294
      -0.172       0.161       0.165             -0.836       0.782       0.804
       0.145      -0.001      -0.175              0.707      -0.004      -0.851
       0.201      -0.219      -0.009              0.980      -1.067      -0.043
 
 ---------------------------------
   Principal Axis Representation  
 ---------------------------------

 ----- k (10^19 kg m-2 s-2 A-2) ----         ------------- j (hz) -------------

 ZORA FC+SD spin contribution (+ PSO cross terms):                       
  isotropic    k=      -0.060                              j=      -0.294
      -0.425      -0.005      -0.029             -2.071      -0.023      -0.142
       0.005       0.050       0.002              0.023       0.244       0.010
       0.029      -0.002       0.194              0.142      -0.010       0.943

 total calculated spin-spin coupling:                                    
  isotropic    k=      -0.060                              j=      -0.294
      -0.425      -0.005      -0.029             -2.071      -0.023      -0.142
       0.005       0.050       0.002              0.023       0.244       0.010
       0.029      -0.002       0.194              0.142      -0.010       0.943
 
 Principal Axis System (u,v,w) expressed in Cartesians:
 (taken as eigenvectors of the symmetric part of the coupling tensor,
  sorted in ascending order of eigenvalues = principal values)
        u         v         w
        0.685     0.724     0.085
       -0.495     0.548    -0.675
       -0.535     0.420     0.733



 ========================================
  Nucleus 4 (P) perturbing nucleus 30 (H)
 ========================================
  
 Internal CPL numbering of atoms:  P(4) perturbing  H(30)
 ADF-GUI atoms:  P(2) perturbing  H(26)
  
 ---------------------------------
   Cartesian Axis Representation  
 ---------------------------------

 ----- k (10^19 kg m-2 s-2 A-2) ----         ------------- j (hz) -------------

 ZORA FC+SD spin contribution (+ PSO cross terms):                       
  isotropic    k=      -0.096                              j=      -0.466
      -0.262       0.076      -0.059             -1.277       0.370      -0.287
       0.100      -0.084      -0.013              0.486      -0.407      -0.065
      -0.025      -0.089       0.059             -0.122      -0.431       0.286

 total calculated spin-spin coupling:                                    
  isotropic    k=      -0.096                              j=      -0.466
      -0.262       0.076      -0.059             -1.277       0.370      -0.287
       0.100      -0.084      -0.013              0.486      -0.407      -0.065
      -0.025      -0.089       0.059             -0.122      -0.431       0.286
 
 ---------------------------------
   Principal Axis Representation  
 ---------------------------------

 ----- k (10^19 kg m-2 s-2 A-2) ----         ------------- j (hz) -------------

 ZORA FC+SD spin contribution (+ PSO cross terms):                       
  isotropic    k=      -0.096                              j=      -0.466
      -0.299       0.025      -0.021             -1.458       0.120      -0.103
      -0.025      -0.077      -0.028             -0.120      -0.373      -0.137
       0.021       0.028       0.089              0.103       0.137       0.432

 total calculated spin-spin coupling:                                    
  isotropic    k=      -0.096                              j=      -0.466
      -0.299       0.025      -0.021             -1.458       0.120      -0.103
      -0.025      -0.077      -0.028             -0.120      -0.373      -0.137
       0.021       0.028       0.089              0.103       0.137       0.432
 
 Principal Axis System (u,v,w) expressed in Cartesians:
 (taken as eigenvectors of the symmetric part of the coupling tensor,
  sorted in ascending order of eigenvalues = principal values)
        u         v         w
        0.929    -0.310    -0.201
       -0.365    -0.854    -0.371
        0.057    -0.418     0.907



 ========================================
  Nucleus 4 (P) perturbing nucleus 31 (H)
 ========================================
  
 Internal CPL numbering of atoms:  P(4) perturbing  H(31)
 ADF-GUI atoms:  P(2) perturbing  H(29)
  
 ---------------------------------
   Cartesian Axis Representation  
 ---------------------------------

 ----- k (10^19 kg m-2 s-2 A-2) ----         ------------- j (hz) -------------

 ZORA FC+SD spin contribution (+ PSO cross terms):                       
  isotropic    k=      -0.025                              j=      -0.122
      -0.139      -0.026       0.097             -0.679      -0.128       0.472
      -0.036      -0.054      -0.028             -0.176      -0.265      -0.135
       0.137      -0.047       0.119              0.669      -0.231       0.579

 total calculated spin-spin coupling:                                    
  isotropic    k=      -0.025                              j=      -0.122
      -0.139      -0.026       0.097             -0.679      -0.128       0.472
      -0.036      -0.054      -0.028             -0.176      -0.265      -0.135
       0.137      -0.047       0.119              0.669      -0.231       0.579
 
 ---------------------------------
   Principal Axis Representation  
 ---------------------------------

 ----- k (10^19 kg m-2 s-2 A-2) ----         ------------- j (hz) -------------

 ZORA FC+SD spin contribution (+ PSO cross terms):                       
  isotropic    k=      -0.025                              j=      -0.122
      -0.187       0.004      -0.020             -0.908       0.019      -0.099
      -0.004      -0.062       0.010             -0.019      -0.301       0.049
       0.020      -0.010       0.174              0.099      -0.049       0.845

 total calculated spin-spin coupling:                                    
  isotropic    k=      -0.025                              j=      -0.122
      -0.187       0.004      -0.020             -0.908       0.019      -0.099
      -0.004      -0.062       0.010             -0.019      -0.301       0.049
       0.020      -0.010       0.174              0.099      -0.049       0.845
 
 Principal Axis System (u,v,w) expressed in Cartesians:
 (taken as eigenvectors of the symmetric part of the coupling tensor,
  sorted in ascending order of eigenvalues = principal values)
        u         v         w
        0.932    -0.044     0.361
        0.123     0.972    -0.200
       -0.342     0.230     0.911



 ========================================
  Nucleus 4 (P) perturbing nucleus 15 (C)
 ========================================
  
 Internal CPL numbering of atoms:  P(4) perturbing  C(15)
 ADF-GUI atoms:  P(2) perturbing  C(30)
  
 ---------------------------------
   Cartesian Axis Representation  
 ---------------------------------

 ----- k (10^19 kg m-2 s-2 A-2) ----         ------------- j (hz) -------------

 ZORA FC+SD spin contribution (+ PSO cross terms):                       
  isotropic    k=       0.851                              j=       1.042
       0.202       0.281       0.509              0.247       0.344       0.623
       0.205       1.259       0.413              0.251       1.542       0.506
       0.521       0.394       1.092              0.638       0.483       1.336

 total calculated spin-spin coupling:                                    
  isotropic    k=       0.851                              j=       1.042
       0.202       0.281       0.509              0.247       0.344       0.623
       0.205       1.259       0.413              0.251       1.542       0.506
       0.521       0.394       1.092              0.638       0.483       1.336
 
 ---------------------------------
   Principal Axis Representation  
 ---------------------------------

 ----- k (10^19 kg m-2 s-2 A-2) ----         ------------- j (hz) -------------

 ZORA FC+SD spin contribution (+ PSO cross terms):                       
  isotropic    k=       0.851                              j=       1.042
      -0.036       0.032       0.022             -0.045       0.040       0.027
      -0.032       0.826      -0.007             -0.040       1.011      -0.008
      -0.022       0.007       1.764             -0.027       0.008       2.159

 total calculated spin-spin coupling:                                    
  isotropic    k=       0.851                              j=       1.042
      -0.036       0.032       0.022             -0.045       0.040       0.027
      -0.032       0.826      -0.007             -0.040       1.011      -0.008
      -0.022       0.007       1.764             -0.027       0.008       2.159
 
 Principal Axis System (u,v,w) expressed in Cartesians:
 (taken as eigenvectors of the symmetric part of the coupling tensor,
  sorted in ascending order of eigenvalues = principal values)
        u         v         w
       -0.915     0.243    -0.323
        0.046    -0.730    -0.681
        0.401     0.638    -0.657



 ========================================
  Nucleus 4 (P) perturbing nucleus 32 (H)
 ========================================
  
 Internal CPL numbering of atoms:  P(4) perturbing  H(32)
 ADF-GUI atoms:  P(2) perturbing  H(31)
  
 ---------------------------------
   Cartesian Axis Representation  
 ---------------------------------

 ----- k (10^19 kg m-2 s-2 A-2) ----         ------------- j (hz) -------------

 ZORA FC+SD spin contribution (+ PSO cross terms):                       
  isotropic    k=       2.890                              j=      14.066
       2.302      -0.483       1.086             11.208      -2.350       5.288
      -0.522       2.854      -0.817             -2.543      13.894      -3.978
       1.152      -0.830       3.512              5.605      -4.040      17.098

 total calculated spin-spin coupling:                                    
  isotropic    k=       2.890                              j=      14.066
       2.302      -0.483       1.086             11.208      -2.350       5.288
      -0.522       2.854      -0.817             -2.543      13.894      -3.978
       1.152      -0.830       3.512              5.605      -4.040      17.098
 
 ---------------------------------
   Principal Axis Representation  
 ---------------------------------

 ----- k (10^19 kg m-2 s-2 A-2) ----         ------------- j (hz) -------------

 ZORA FC+SD spin contribution (+ PSO cross terms):                       
  isotropic    k=       2.890                              j=      14.066
       1.635       0.003      -0.038              7.960       0.013      -0.187
      -0.003       2.347      -0.004             -0.013      11.422      -0.021
       0.038       0.004       4.687              0.187       0.021      22.817

 total calculated spin-spin coupling:                                    
  isotropic    k=       2.890                              j=      14.066
       1.635       0.003      -0.038              7.960       0.013      -0.187
      -0.003       2.347      -0.004             -0.013      11.422      -0.021
       0.038       0.004       4.687              0.187       0.021      22.817
 
 Principal Axis System (u,v,w) expressed in Cartesians:
 (taken as eigenvectors of the symmetric part of the coupling tensor,
  sorted in ascending order of eigenvalues = principal values)
        u         v         w
        0.861     0.228     0.454
        0.012     0.885    -0.466
       -0.508     0.406     0.759
 *******************************************************************************

                             N M R   E X I T
 NORMAL TERMINATION



 =================
 Timing Statistics
 =================
  
 Total Used :                     CPU=     1869.12      System=       12.54     Elapsed=     1936.83

 Calls  Section                     ( Mean, Percentage )
 ---------------------------------------------------------------------------------------------------
     3  ><      ................      0.00    0.00             0.00    0.01             0.00    0.00
     1  GENPT   ................      2.72    0.15             0.39    3.13             3.41    0.18
     1  RDEIGZ  ................      0.92    0.05             0.12    0.93             1.07    0.06
     8  CALBSO  ................    110.19   47.16             0.35   22.37           113.67   46.95
     8  TRBSO   ................      5.13    2.20             0.24   15.09             5.57    2.30
     8  TRAOMO  ................      0.00    0.00             0.00    0.23             0.00    0.00
     1  SOPT1   ................    942.87   50.44             7.13   56.83           978.23   50.51
     1  SOCPL   ................      0.00    0.00             0.01    0.06             0.01    0.00
     1  EXIT PROCEDURE .........      0.00    0.00             0.17    1.36             0.18    0.01


 Currently Open Files (EXIT00)
 ====================

 Unit    Access Format  Status   Type       Ident (file)
 -------------------------------------------------------
   3      SEQ    FORM   TRANSP  NORMAL      LOGFILE
                                          ( /home/milias/Work/projects/open-collection/theoretical_chemistry/projects/nmr_diplomovky/derivaty_markerov/derivative_7_Ivan/ams/sozora/der7.nmr_opbe_sozora_gnuc_tz2p-j_good_cosmo-chcl3.logfile )
