

 Parallel Execution: Process Information
 ==============================================================================
 Rank   Node Name                              NodeID   MyNodeRank  NodeMaster
    0   ubuntu-kch                                0          0          0
    1   ubuntu-kch                                0          1         -1
    2   ubuntu-kch                                0          2         -1
    3   ubuntu-kch                                0          3         -1
 ==============================================================================


May use up to 7570MB of RAM as shared memory on node 0

 *******************************************************************************
 *                                                                             *
 *  --------------------------------                                           *
 *   Amsterdam Modeling Suite (AMS)              2020.202                      *
 *  --------------------------------                                           *
 *                                               r90167 2020-12-05             *
 *                                                                             *
 *                                                                             *
 *                              =================                              *
 *                              |               |                              *
 *                              |     A M S     |                              *
 *                              |               |                              *
 *                              =================                              *
 *                                                                             *
 *                                                                             *
 *   Online information and documentation:  https://www.scm.com/support/       *
 *   E-mail:  support@scm.com   info@scm.com                                   *
 *                                                                             *
 *   Scientific publications using AMS results must be properly referenced     *
 *   See the User Manuals (or the web site) for recommended citations          *
 *   The terms and conditions of the End User License Agreement apply to       *
 *   the use of AMS, https://www.scm.com/license-terms/                        *
 *                                                                             *
 **********************  x86_64_linux_intel / intelmpi  ************************
 
 Licensed to: Dr. Miroslav Ilias / Matej Bel University, Department Chemistry, Fac. Natural Sciences / Banska Bystrica / SLOVAKIA
 SCM User ID: u17848
  
 AMS 2020.202  RunTime: Jan30-2021 21:52:31  Nodes: 1  Procs: 4

 AMS jobname: ams
 AMS jobid  : 1334074001

 Start   directory: /home/milias/work/projects/open-collection/theoretical_chemistry/projects/nmr_diplomovky/reference_compounds/nitromethane/ams/pbe0_tz2p_good/tmp.milias.434114.0.noindex/
 Results directory: /home/milias/work/projects/open-collection/theoretical_chemistry/projects/nmr_diplomovky/reference_compounds/nitromethane/ams/pbe0_tz2p_good/nitromethane.geopt_freq_nmr_shield_pbe0_tz2p_good_cosmo-h2o.results/
 Scratch directory: /tmp/amstmp_ams_kid0.1334074001/


 Communication costs MPI_COMM_WORLD:      0.243 usec per message,   0.0033 usec per 8-byte item
 Communication costs for intra-node:      0.264 usec per message,   0.0033 usec per 8-byte item

 RNG seed: -411736364 -561880118 1295175257 -140455444 -2015615191 -518241545 70417432 1909226637



                        ********************************************************************
                        *  ADF 2020.202  RunTime: Jan30-2021 21:52:32  Nodes: 1  Procs: 4  *
                        ********************************************************************
  
       ***************************
       *  GEOMETRY OPTIMIZATION  *
       ***************************

Optimization Method                    Quasi Newton
Optimization Coordinates               Delocalized Coordinates
Optimize lattice                       F
 
 ------------------------------------------------------
 Convergence criteria (Hartree,Angstrom)
 ------------------------------------------------------
 Maximum gradient               0.001000000000
 Maximum rms gradient           0.000666666667
 Maximum step allowed           0.001000000000
 Maximum rms step allowed       0.000666666667
 Maximum energy change allowe   0.000070000000
 Maximum stress energy allowe   0.000500000000
 
Initial model Hessian                  Automatic Hessian
 
------------------------------------
Quasi-Newton Optimizer Parameters
------------------------------------
Hessian Update Method                  BFGS
Maximum number of steps                  250
First GDIIS cycle                          0
Maximum GDIIS vectors                      0
Trust radius (bohr)                        0.200000
Trust radius varies                        T
Constraints converged at all steps         T
Use projector                              T
 
 Rigid motions settings for: old optimizer
 Atomic rotations (x,y,z):     T T T
 Atomic translations (x,y,z):  T T T
 Tolerance:                   1.000000000000000E-006
 
--------
Geometry
--------
Atoms
  Index Symbol   x (angstrom)   y (angstrom)   z (angstrom)
      1      C    -1.06114703     0.22157301     0.01455853       adf.R=1.700
      2      N     0.45599388     0.15096527     0.00867068       adf.R=1.608
      3      O     1.07134394     1.22830238    -0.00235278       adf.R=1.517
      4      O     0.97012302    -0.97799475    -0.01299107       adf.R=1.517
      5      H    -1.35320552     1.14775907     0.51026835       adf.R=1.350
      6      H    -1.43804518    -0.67025808     0.51584701       adf.R=1.350
      7      H    -1.37441504     0.23251561    -1.03400072       adf.R=1.350
 
Total System Charge             0.00000
Bonding info available!
 
 
----------------
ADF Engine Input
----------------
 
 Basis
 Type TZ2P
 Core None
 End
 Save TAPE10
 XC
 Hybrid PBE0
 End
 Relativity
 Level None
 End
 Solvation
 Surf Delley
 Solv name=Water cav0=0.0 cav1=0.0067639
 Charged method=CONJ
 C-Mat POT
 SCF VAR ALL
 CSMRSP
 End
 NumericalQuality Good
 

 Title: *** (NO TITLE) ***

 Using automatic Hessian for delocalized coordinates.
 *** GOStep1 ***

 SOLVATION
-------------------------------------------

  The Delley construction of COSMO surface surface is calculated

       Division Level for Surface Triangles (NDIV)                  3
       Final Division Level for Triangles (NFDIV)                   1
       Radius of the Solvent (RSOL)                           1.93000 angstr
  Dielectric Constant (EPSL)                                 78.39000

       COSMO equation is solved iteratively-               conjugate-gradient

       Maximun of Iterations for Charges (NCIX)                  1000
       Criterion for Charge convergence (CCNV)                1.0E-08

  COSMO charges included variationally in SCF

       COSMO included at every SCF cycle

  Geometry-dependent empirical factor                         0.00000

  C-Matrix calculated in cspmtx

  In cspmtx, C-Matrix calculated using fitted potential

-------------------------------------------



 -------------------------------------------
  COSMO surface
  Area             =          295.153
  Volume           =          407.029
  Number of Points =          868
 -------------------------------------------



 ======================
 RI Hartree-Fock Scheme
 ======================
  
 Fit Set Quality     : GOOD
 Integration Quality : GOOD
 Threshold Quality   : GOOD
 Response Quality    : DEFAULT
 Is Range Separated  :  F
 
 RIHartreeFock Dependency: number of modified vectors:           3
 cosmo_calcen: 0.5 (esolb+esolc) (Hartrees) =   -0.015931

 Solvation energy (screening term,uncorrected) =     -9.996571 kcal/mol

 Solvation energy (dispersion and cavitation terms) =      0.551913 kcal/mol
 Solvation Energy Contributions (Hartrees)
          esola   esolb+esolc
     0.01593055   -0.03186110
 esol last cycle   -0.01593055
  
 Hartree-Fock exchange energy:   -29.0966079877242     
 cosmo_calcen: 0.5 (esolb+esolc) (Hartrees) =   -0.015931

 Solvation energy (screening term,uncorrected) =     -9.996572 kcal/mol

 Solvation energy (dispersion and cavitation terms) =      0.551913 kcal/mol
 Solvation Energy Contributions (Hartrees)
          esola   esolb+esolc
     0.01593055   -0.03186110
 esol last cycle   -0.01593055
  pauli hf:                              0.829022250881439         22.5588           520.22          2176.60
  elstat hf:                            -0.702334834476979        -19.1115          -440.72         -1843.98

 Energy gradients wrt nuclear displacements
 ==========================================

     Atom      Cartesian (a.u./angstrom)
                 X         Y         Z
 ----------------------------------------
     1 C    -0.024376  0.001112  0.000218
     2 N    -0.008495  0.000194  0.002572
     3 O     0.027842  0.075468 -0.000586
     4 O     0.021138 -0.077708 -0.001405
     5 H    -0.004839  0.007147  0.002977
     6 H    -0.005446 -0.006463  0.002942
     7 H    -0.005824  0.000250 -0.006717
 ----------------------------------------
 Mulliken charges used for AMS results%charges...
 
----------------------------------------------------------------------
Geometry Convergence after Step   1       (Hartree/Angstrom,Angstrom)
----------------------------------------------------------------------
current energy                               -1.87396406 Hartree
energy change                      -1.87396406     0.00007000    F
constrained gradient max            0.07771548     0.00100000    F
constrained gradient rms            0.02570435     0.00066667    F
gradient max                        0.07771548
gradient rms                        0.02570435
cart. step max                      0.04585988     0.00100000    F
cart. step rms                      0.01619831     0.00066667    F
 
 
--------
Geometry
--------
Atoms
  Index Symbol   x (angstrom)   y (angstrom)   z (angstrom)
      1      C    -1.05734915     0.22142510     0.01411848       adf.R=1.700
      2      N     0.43713001     0.15215457     0.00504205       adf.R=1.608
      3      O     1.05579405     1.18378758    -0.00181135       adf.R=1.517
      4      O     0.95756904    -0.93213487    -0.01100099       adf.R=1.517
      5      H    -1.33948133     1.14441499     0.51081396       adf.R=1.350
      6      H    -1.42347708    -0.66885970     0.51578318       adf.R=1.350
      7      H    -1.35953746     0.23207483    -1.03294532       adf.R=1.350
 
Total System Charge             0.00000
Bonding info available!
 
 *** GOStep2 ***

 SOLVATION
-------------------------------------------

  The Delley construction of COSMO surface surface is calculated

       Division Level for Surface Triangles (NDIV)                  3
       Final Division Level for Triangles (NFDIV)                   1
       Radius of the Solvent (RSOL)                           1.93000 angstr
  Dielectric Constant (EPSL)                                 78.39000

       COSMO equation is solved iteratively-               conjugate-gradient

       Maximun of Iterations for Charges (NCIX)                  1000
       Criterion for Charge convergence (CCNV)                1.0E-08

  COSMO charges included variationally in SCF

       COSMO included at every SCF cycle

  Geometry-dependent empirical factor                         0.00000

  C-Matrix calculated in cspmtx

  In cspmtx, C-Matrix calculated using fitted potential

-------------------------------------------



 -------------------------------------------
  COSMO surface
  Area             =          291.477
  Volume           =          401.225
  Number of Points =          859
 -------------------------------------------



 ======================
 RI Hartree-Fock Scheme
 ======================
  
 Fit Set Quality     : GOOD
 Integration Quality : GOOD
 Threshold Quality   : GOOD
 Response Quality    : DEFAULT
 Is Range Separated  :  F
 
 RIHartreeFock Dependency: number of modified vectors:           3
 cosmo_calcen: 0.5 (esolb+esolc) (Hartrees) =   -0.016244

 Solvation energy (screening term,uncorrected) =    -10.193504 kcal/mol

 Solvation energy (dispersion and cavitation terms) =      0.545040 kcal/mol
 Solvation Energy Contributions (Hartrees)
          esola   esolb+esolc
     0.01624438   -0.03248876
 esol last cycle   -0.01624438
  
 Hartree-Fock exchange energy:   -29.1920868165342     
 cosmo_calcen: 0.5 (esolb+esolc) (Hartrees) =   -0.016244

 Solvation energy (screening term,uncorrected) =    -10.193504 kcal/mol

 Solvation energy (dispersion and cavitation terms) =      0.545040 kcal/mol
 Solvation Energy Contributions (Hartrees)
          esola   esolb+esolc
     0.01624438   -0.03248876
 esol last cycle   -0.01624438
  pauli hf:                              0.813524250712977         22.1371           510.49          2135.91
  elstat hf:                            -0.749714806469788        -20.4008          -470.45         -1968.38

 Energy gradients wrt nuclear displacements
 ==========================================

     Atom      Cartesian (a.u./angstrom)
                 X         Y         Z
 ----------------------------------------
     1 C    -0.014548  0.000606  0.000965
     2 N     0.030265 -0.001579 -0.003174
     3 O    -0.009539 -0.032916  0.001091
     4 O    -0.006579  0.033862  0.001323
     5 H     0.000330  0.002530  0.001207
     6 H     0.000071 -0.002486  0.001218
     7 H    -0.000001 -0.000018 -0.002630
 ----------------------------------------
 Mulliken charges used for AMS results%charges...

 dE(predicted):    -0.39073E-02, dE(actual):    -0.28459E-02, Trust radius:    0.200000, all in a.u.
 
----------------------------------------------------------------------
Geometry Convergence after Step   2       (Hartree/Angstrom,Angstrom)
----------------------------------------------------------------------
current energy                               -1.87680994 Hartree
energy change                      -0.00284588     0.00007000    F
constrained gradient max            0.03386656     0.00100000    F
constrained gradient rms            0.01296765     0.00066667    F
gradient max                        0.03386656
gradient rms                        0.01296765
cart. step max                      0.01422190     0.00100000    F
cart. step rms                      0.00670710     0.00066667    F
 
 
--------
Geometry
--------
Atoms
  Index Symbol   x (angstrom)   y (angstrom)   z (angstrom)
      1      C    -1.05231962     0.22121462     0.01637563       adf.R=1.700
      2      N     0.43521086     0.15220822     0.01770038       adf.R=1.608
      3      O     1.04915515     1.19800948    -0.00960069       adf.R=1.517
      4      O     0.94964645    -0.94569432    -0.01816260       adf.R=1.517
      5      H    -1.33966387     1.14258012     0.51020241       adf.R=1.350
      6      H    -1.42346313    -0.66726492     0.51472927       adf.R=1.350
      7      H    -1.34791777     0.23180930    -1.03124439       adf.R=1.350
 
Total System Charge             0.00000
Bonding info available!
 
 *** GOStep3 ***

 SOLVATION
-------------------------------------------

  The Delley construction of COSMO surface surface is calculated

       Division Level for Surface Triangles (NDIV)                  3
       Final Division Level for Triangles (NFDIV)                   1
       Radius of the Solvent (RSOL)                           1.93000 angstr
  Dielectric Constant (EPSL)                                 78.39000

       COSMO equation is solved iteratively-               conjugate-gradient

       Maximun of Iterations for Charges (NCIX)                  1000
       Criterion for Charge convergence (CCNV)                1.0E-08

  COSMO charges included variationally in SCF

       COSMO included at every SCF cycle

  Geometry-dependent empirical factor                         0.00000

  C-Matrix calculated in cspmtx

  In cspmtx, C-Matrix calculated using fitted potential

-------------------------------------------



 -------------------------------------------
  COSMO surface
  Area             =          291.763
  Volume           =          401.864
  Number of Points =          860
 -------------------------------------------



 ======================
 RI Hartree-Fock Scheme
 ======================
  
 Fit Set Quality     : GOOD
 Integration Quality : GOOD
 Threshold Quality   : GOOD
 Response Quality    : DEFAULT
 Is Range Separated  :  F
 
 RIHartreeFock Dependency: number of modified vectors:           3
 cosmo_calcen: 0.5 (esolb+esolc) (Hartrees) =   -0.016074

 Solvation energy (screening term,uncorrected) =    -10.086593 kcal/mol

 Solvation energy (dispersion and cavitation terms) =      0.545575 kcal/mol
 Solvation Energy Contributions (Hartrees)
          esola   esolb+esolc
     0.01607401   -0.03214801
 esol last cycle   -0.01607401
  
 Hartree-Fock exchange energy:   -29.1748155097238     
 cosmo_calcen: 0.5 (esolb+esolc) (Hartrees) =   -0.016074

 Solvation energy (screening term,uncorrected) =    -10.086592 kcal/mol

 Solvation energy (dispersion and cavitation terms) =      0.545575 kcal/mol
 Solvation Energy Contributions (Hartrees)
          esola   esolb+esolc
     0.01607401   -0.03214801
 esol last cycle   -0.01607401
  pauli hf:                              0.817168272432132         22.2363           512.78          2145.47
  elstat hf:                            -0.742217072395728        -20.1968          -465.75         -1948.69

 Energy gradients wrt nuclear displacements
 ==========================================

     Atom      Cartesian (a.u./angstrom)
                 X         Y         Z
 ----------------------------------------
     1 C    -0.011396  0.000536 -0.003760
     2 N     0.013368 -0.000748  0.010837
     3 O    -0.002008  0.000224 -0.003595
     4 O    -0.002065  0.000100 -0.003602
     5 H     0.001151  0.000975  0.000462
     6 H     0.001061 -0.001072  0.000468
     7 H    -0.000112 -0.000016 -0.000811
 ----------------------------------------
 Mulliken charges used for AMS results%charges...

 dE(predicted):    -0.51194E-03, dE(actual):    -0.42876E-03, Trust radius:    0.200000, all in a.u.
 
----------------------------------------------------------------------
Geometry Convergence after Step   3       (Hartree/Angstrom,Angstrom)
----------------------------------------------------------------------
current energy                               -1.87723871 Hartree
energy change                      -0.00042876     0.00007000    F
constrained gradient max            0.01336752     0.00100000    F
constrained gradient rms            0.00478531     0.00066667    F
gradient max                        0.01336752
gradient rms                        0.00478531
cart. step max                      0.04633268     0.00100000    F
cart. step rms                      0.01480245     0.00066667    F
 
 
--------
Geometry
--------
Atoms
  Index Symbol   x (angstrom)   y (angstrom)   z (angstrom)
      1      C    -1.04609444     0.22097960     0.00957609       adf.R=1.700
      2      N     0.43133570     0.15257057    -0.02863231       adf.R=1.608
      3      O     1.04497573     1.20728422     0.01566992       adf.R=1.517
      4      O     0.94467252    -0.95482101     0.00780488       adf.R=1.517
      5      H    -1.32619049     1.13942998     0.51008796       adf.R=1.350
      6      H    -1.40940345    -0.66564903     0.51416200       adf.R=1.350
      7      H    -1.36864751     0.23306817    -1.02866855       adf.R=1.350
 
Total System Charge             0.00000
Bonding info available!
 
 *** GOStep4 ***

 SOLVATION
-------------------------------------------

  The Delley construction of COSMO surface surface is calculated

       Division Level for Surface Triangles (NDIV)                  3
       Final Division Level for Triangles (NFDIV)                   1
       Radius of the Solvent (RSOL)                           1.93000 angstr
  Dielectric Constant (EPSL)                                 78.39000

       COSMO equation is solved iteratively-               conjugate-gradient

       Maximun of Iterations for Charges (NCIX)                  1000
       Criterion for Charge convergence (CCNV)                1.0E-08

  COSMO charges included variationally in SCF

       COSMO included at every SCF cycle

  Geometry-dependent empirical factor                         0.00000

  C-Matrix calculated in cspmtx

  In cspmtx, C-Matrix calculated using fitted potential

-------------------------------------------



 -------------------------------------------
  COSMO surface
  Area             =          291.553
  Volume           =          401.352
  Number of Points =          863
 -------------------------------------------



 ======================
 RI Hartree-Fock Scheme
 ======================
  
 Fit Set Quality     : GOOD
 Integration Quality : GOOD
 Threshold Quality   : GOOD
 Response Quality    : DEFAULT
 Is Range Separated  :  F
 
 RIHartreeFock Dependency: number of modified vectors:           3
 cosmo_calcen: 0.5 (esolb+esolc) (Hartrees) =   -0.016085

 Solvation energy (screening term,uncorrected) =    -10.093295 kcal/mol

 Solvation energy (dispersion and cavitation terms) =      0.545181 kcal/mol
 Solvation Energy Contributions (Hartrees)
          esola   esolb+esolc
     0.01608469   -0.03216937
 esol last cycle   -0.01608469
  
 Hartree-Fock exchange energy:   -29.1638286545019     
 cosmo_calcen: 0.5 (esolb+esolc) (Hartrees) =   -0.016085

 Solvation energy (screening term,uncorrected) =    -10.093293 kcal/mol

 Solvation energy (dispersion and cavitation terms) =      0.545181 kcal/mol
 Solvation Energy Contributions (Hartrees)
          esola   esolb+esolc
     0.01608468   -0.03216937
 esol last cycle   -0.01608468
  pauli hf:                              0.818671539276606         22.2772           513.72          2149.42
  elstat hf:                            -0.737917284050715        -20.0798          -463.05         -1937.40

 Energy gradients wrt nuclear displacements
 ==========================================

     Atom      Cartesian (a.u./angstrom)
                 X         Y         Z
 ----------------------------------------
     1 C    -0.003873  0.000182  0.011788
     2 N    -0.004958  0.000499 -0.041294
     3 O     0.003667  0.021970  0.014227
     4 O     0.001696 -0.022463  0.014009
     5 H    -0.000227 -0.000917  0.000206
     6 H    -0.000150  0.000921  0.000241
     7 H     0.003846 -0.000192  0.000824
 ----------------------------------------
 Mulliken charges used for AMS results%charges...

 dE(predicted):    -0.37555E-03, dE(actual):     0.10221E-02, Trust radius:    0.050000, all in a.u.
 
----------------------------------------------------------------------
Geometry Convergence after Step   4       (Hartree/Angstrom,Angstrom)
----------------------------------------------------------------------
current energy                               -1.87621656 Hartree
energy change                       0.00102215     0.00007000    F
constrained gradient max            0.04131078     0.00100000    F
constrained gradient rms            0.01254257     0.00066667    F
gradient max                        0.04131078
gradient rms                        0.01254257
cart. step max                      0.01131721     0.00100000    F
cart. step rms                      0.00404282     0.00066667    F
 
 
--------
Geometry
--------
Atoms
  Index Symbol   x (angstrom)   y (angstrom)   z (angstrom)
      1      C    -1.04719089     0.22101439     0.01033683       adf.R=1.700
      2      N     0.43128478     0.15252916    -0.01731510       adf.R=1.608
      3      O     1.04808858     1.19952518     0.01052872       adf.R=1.517
      4      O     0.94845922    -0.94730939     0.00275391       adf.R=1.517
      5      H    -1.32920729     1.14004320     0.50936724       adf.R=1.350
      6      H    -1.41252874    -0.66599524     0.51341785       adf.R=1.350
      7      H    -1.36825759     0.23305521    -1.02908944       adf.R=1.350
 
Total System Charge             0.00000
Bonding info available!
 
 *** GOStep5 ***

 SOLVATION
-------------------------------------------

  The Delley construction of COSMO surface surface is calculated

       Division Level for Surface Triangles (NDIV)                  3
       Final Division Level for Triangles (NFDIV)                   1
       Radius of the Solvent (RSOL)                           1.93000 angstr
  Dielectric Constant (EPSL)                                 78.39000

       COSMO equation is solved iteratively-               conjugate-gradient

       Maximun of Iterations for Charges (NCIX)                  1000
       Criterion for Charge convergence (CCNV)                1.0E-08

  COSMO charges included variationally in SCF

       COSMO included at every SCF cycle

  Geometry-dependent empirical factor                         0.00000

  C-Matrix calculated in cspmtx

  In cspmtx, C-Matrix calculated using fitted potential

-------------------------------------------



 -------------------------------------------
  COSMO surface
  Area             =          291.490
  Volume           =          401.196
  Number of Points =          865
 -------------------------------------------



 ======================
 RI Hartree-Fock Scheme
 ======================
  
 Fit Set Quality     : GOOD
 Integration Quality : GOOD
 Threshold Quality   : GOOD
 Response Quality    : DEFAULT
 Is Range Separated  :  F
 
 RIHartreeFock Dependency: number of modified vectors:           3
 cosmo_calcen: 0.5 (esolb+esolc) (Hartrees) =   -0.016193

 Solvation energy (screening term,uncorrected) =    -10.161455 kcal/mol

 Solvation energy (dispersion and cavitation terms) =      0.545065 kcal/mol
 Solvation Energy Contributions (Hartrees)
          esola   esolb+esolc
     0.01619331   -0.03238662
 esol last cycle   -0.01619331
  
 Hartree-Fock exchange energy:   -29.1746465984625     
 cosmo_calcen: 0.5 (esolb+esolc) (Hartrees) =   -0.016193

 Solvation energy (screening term,uncorrected) =    -10.161455 kcal/mol

 Solvation energy (dispersion and cavitation terms) =      0.545065 kcal/mol
 Solvation Energy Contributions (Hartrees)
          esola   esolb+esolc
     0.01619331   -0.03238662
 esol last cycle   -0.01619331
  pauli hf:                              0.815992088284934         22.2043           512.04          2142.39
  elstat hf:                            -0.742892598050878        -20.2151          -466.17         -1950.46

 Energy gradients wrt nuclear displacements
 ==========================================

     Atom      Cartesian (a.u./angstrom)
                 X         Y         Z
 ----------------------------------------
     1 C    -0.003786  0.000193  0.008094
     2 N     0.001110  0.000090 -0.027835
     3 O     0.000561  0.005267  0.009703
     4 O     0.000083 -0.005413  0.009658
     5 H     0.000081 -0.000469  0.000072
     6 H     0.000118  0.000438  0.000080
     7 H     0.001832 -0.000106  0.000228
 ----------------------------------------
 Mulliken charges used for AMS results%charges...

 dE(predicted):    -0.69128E-03, dE(actual):    -0.69886E-03, Trust radius:    0.100000, all in a.u.
 
----------------------------------------------------------------------
Geometry Convergence after Step   5       (Hartree/Angstrom,Angstrom)
----------------------------------------------------------------------
current energy                               -1.87691542 Hartree
energy change                      -0.00069886     0.00007000    F
constrained gradient max            0.02784930     0.00100000    F
constrained gradient rms            0.00725245     0.00066667    F
gradient max                        0.02784930
gradient rms                        0.00725245
cart. step max                      0.02306364     0.00100000    F
cart. step rms                      0.00757233     0.00066667    F
 
 
--------
Geometry
--------
Atoms
  Index Symbol   x (angstrom)   y (angstrom)   z (angstrom)
      1      C    -1.04598155     0.22090618     0.01465952       adf.R=1.700
      2      N     0.43050662     0.15245190     0.00574853       adf.R=1.608
      3      O     1.04807126     1.19706139    -0.00271571       adf.R=1.517
      4      O     0.94879071    -0.94474906    -0.01092474       adf.R=1.517
      5      H    -1.33609994     1.14043242     0.50876667       adf.R=1.350
      6      H    -1.41966120    -0.66557441     0.51314395       adf.R=1.350
      7      H    -1.35497783     0.23233410    -1.02867822       adf.R=1.350
 
Total System Charge             0.00000
Bonding info available!
 
 *** GOStep6 ***

 SOLVATION
-------------------------------------------

  The Delley construction of COSMO surface surface is calculated

       Division Level for Surface Triangles (NDIV)                  3
       Final Division Level for Triangles (NFDIV)                   1
       Radius of the Solvent (RSOL)                           1.93000 angstr
  Dielectric Constant (EPSL)                                 78.39000

       COSMO equation is solved iteratively-               conjugate-gradient

       Maximun of Iterations for Charges (NCIX)                  1000
       Criterion for Charge convergence (CCNV)                1.0E-08

  COSMO charges included variationally in SCF

       COSMO included at every SCF cycle

  Geometry-dependent empirical factor                         0.00000

  C-Matrix calculated in cspmtx

  In cspmtx, C-Matrix calculated using fitted potential

-------------------------------------------



 -------------------------------------------
  COSMO surface
  Area             =          291.509
  Volume           =          401.305
  Number of Points =          858
 -------------------------------------------



 ======================
 RI Hartree-Fock Scheme
 ======================
  
 Fit Set Quality     : GOOD
 Integration Quality : GOOD
 Threshold Quality   : GOOD
 Response Quality    : DEFAULT
 Is Range Separated  :  F
 
 RIHartreeFock Dependency: number of modified vectors:           3
 cosmo_calcen: 0.5 (esolb+esolc) (Hartrees) =   -0.016226

 Solvation energy (screening term,uncorrected) =    -10.181998 kcal/mol

 Solvation energy (dispersion and cavitation terms) =      0.545099 kcal/mol
 Solvation Energy Contributions (Hartrees)
          esola   esolb+esolc
     0.01622605   -0.03245209
 esol last cycle   -0.01622605
  
 Hartree-Fock exchange energy:   -29.1793619093215     
 cosmo_calcen: 0.5 (esolb+esolc) (Hartrees) =   -0.016226

 Solvation energy (screening term,uncorrected) =    -10.181998 kcal/mol

 Solvation energy (dispersion and cavitation terms) =      0.545099 kcal/mol
 Solvation Energy Contributions (Hartrees)
          esola   esolb+esolc
     0.01622604   -0.03245209
 esol last cycle   -0.01622604
  pauli hf:                              0.814720440602970         22.1697           511.24          2139.05
  elstat hf:                            -0.745365791538541        -20.2824          -467.72         -1956.96

 Energy gradients wrt nuclear displacements
 ==========================================

     Atom      Cartesian (a.u./angstrom)
                 X         Y         Z
 ----------------------------------------
     1 C    -0.001604  0.000075  0.000459
     2 N     0.001962 -0.000037 -0.002354
     3 O    -0.000624 -0.000664  0.000910
     4 O    -0.000513  0.000645  0.000926
     5 H     0.000331 -0.000128 -0.000092
     6 H     0.000368  0.000106 -0.000079
     7 H     0.000081  0.000003  0.000229
 ----------------------------------------
 Mulliken charges used for AMS results%charges...

 dE(predicted):    -0.47132E-03, dE(actual):    -0.46458E-03, Trust radius:    0.200000, all in a.u.
 
----------------------------------------------------------------------
Geometry Convergence after Step   6       (Hartree/Angstrom,Angstrom)
----------------------------------------------------------------------
current energy                               -1.87738000 Hartree
energy change                      -0.00046458     0.00007000    F
constrained gradient max            0.00235361     0.00100000    F
constrained gradient rms            0.00086527     0.00066667    F
gradient max                        0.00235361
gradient rms                        0.00086527
cart. step max                      0.00257920     0.00100000    F
cart. step rms                      0.00111143     0.00066667    F
 
 
--------
Geometry
--------
Atoms
  Index Symbol   x (angstrom)   y (angstrom)   z (angstrom)
      1      C    -1.04545395     0.22086580     0.01561138       adf.R=1.700
      2      N     0.43020712     0.15247088     0.00813376       adf.R=1.608
      3      O     1.04828852     1.19719932    -0.00454734       adf.R=1.517
      4      O     0.94893846    -0.94484626    -0.01284183       adf.R=1.517
      5      H    -1.33764439     1.14035904     0.50883885       adf.R=1.350
      6      H    -1.42128907    -0.66534526     0.51324763       adf.R=1.350
      7      H    -1.35239862     0.23215900    -1.02844245       adf.R=1.350
 
Total System Charge             0.00000
Bonding info available!
 
 *** GOStep7 ***

 SOLVATION
-------------------------------------------

  The Delley construction of COSMO surface surface is calculated

       Division Level for Surface Triangles (NDIV)                  3
       Final Division Level for Triangles (NFDIV)                   1
       Radius of the Solvent (RSOL)                           1.93000 angstr
  Dielectric Constant (EPSL)                                 78.39000

       COSMO equation is solved iteratively-               conjugate-gradient

       Maximun of Iterations for Charges (NCIX)                  1000
       Criterion for Charge convergence (CCNV)                1.0E-08

  COSMO charges included variationally in SCF

       COSMO included at every SCF cycle

  Geometry-dependent empirical factor                         0.00000

  C-Matrix calculated in cspmtx

  In cspmtx, C-Matrix calculated using fitted potential

-------------------------------------------



 -------------------------------------------
  COSMO surface
  Area             =          291.584
  Volume           =          401.414
  Number of Points =          857
 -------------------------------------------



 ======================
 RI Hartree-Fock Scheme
 ======================
  
 Fit Set Quality     : GOOD
 Integration Quality : GOOD
 Threshold Quality   : GOOD
 Response Quality    : DEFAULT
 Is Range Separated  :  F
 
 RIHartreeFock Dependency: number of modified vectors:           3
 cosmo_calcen: 0.5 (esolb+esolc) (Hartrees) =   -0.016248

 Solvation energy (screening term,uncorrected) =    -10.195706 kcal/mol

 Solvation energy (dispersion and cavitation terms) =      0.545239 kcal/mol
 Solvation Energy Contributions (Hartrees)
          esola   esolb+esolc
     0.01624789   -0.03249578
 esol last cycle   -0.01624789
  
 Hartree-Fock exchange energy:   -29.1787832354417     
 cosmo_calcen: 0.5 (esolb+esolc) (Hartrees) =   -0.016248

 Solvation energy (screening term,uncorrected) =    -10.195705 kcal/mol

 Solvation energy (dispersion and cavitation terms) =      0.545239 kcal/mol
 Solvation Energy Contributions (Hartrees)
          esola   esolb+esolc
     0.01624789   -0.03249578
 esol last cycle   -0.01624789
  pauli hf:                              0.814915520273183         22.1750           511.37          2139.56
  elstat hf:                            -0.745170956907337        -20.2771          -467.60         -1956.45

 Energy gradients wrt nuclear displacements
 ==========================================

     Atom      Cartesian (a.u./angstrom)
                 X         Y         Z
 ----------------------------------------
     1 C    -0.000688  0.000012 -0.000041
     2 N     0.000234 -0.000030  0.000019
     3 O     0.000110  0.000083  0.000009
     4 O     0.000085 -0.000050 -0.000054
     5 H     0.000103 -0.000062 -0.000042
     6 H     0.000112  0.000059 -0.000032
     7 H     0.000044 -0.000012  0.000140
 ----------------------------------------
 Mulliken charges used for AMS results%charges...

 dE(predicted):    -0.56335E-05, dE(actual):    -0.37179E-05, Trust radius:    0.200000, all in a.u.
 
---------------------------------------------------------
Geometry Convergence after Step   7       ** CONVERGED **
---------------------------------------------------------
current energy                               -1.87738371 Hartree
energy change                      -0.00000372     0.00007000    T
constrained gradient max            0.00068816     0.00100000    T
constrained gradient rms            0.00017119     0.00066667    T
gradient max                        0.00068816
gradient rms                        0.00017119
cart. step max                      0.00055250     0.00100000    T
cart. step rms                      0.00021294     0.00066667    T
 
Geometry optimization converged

Optimized geometry:
 
--------
Geometry
--------
Atoms
  Index Symbol   x (angstrom)   y (angstrom)   z (angstrom)
      1      C    -1.04545395     0.22086580     0.01561138       adf.R=1.700
      2      N     0.43020712     0.15247088     0.00813376       adf.R=1.608
      3      O     1.04828852     1.19719932    -0.00454734       adf.R=1.517
      4      O     0.94893846    -0.94484626    -0.01284183       adf.R=1.517
      5      H    -1.33764439     1.14035904     0.50883885       adf.R=1.350
      6      H    -1.42128907    -0.66534526     0.51324763       adf.R=1.350
      7      H    -1.35239862     0.23215900    -1.02844245       adf.R=1.350
 
Total System Charge             0.00000
Bonding info available!
 
Performing a single point calculation on the final geometry ...

 *** adf ***



 ===========================
 A T T A C H E D   F I L E S
 ===========================
  
 Restart/tmp/amstmp_ams_kid0.1334074001/GOStep7.rkf*** GOStep7 ***



 ===============================
 M O D E L   P A R A M E T E R S
 ===============================
  
 DENSITY FUNCTIONAL POTENTIAL (scf)
    Hybrid:                            PBE0                                    == Not Default ==

 SPIN  (restricted / unrestr.)
    Molecule:                          Restricted                               
    Fragments:                         Restricted                               

 OTHER ASPECTS
    Relativistic Corrections:          ---                                     == Not Default ==

    Nuclear Charge Density Model:      Point Charge Nuclei                      
    Core Treatment:                    Frozen Orbital(s)                        

    Hyperfine or Zeeman Interaction:   ---                                      

 SOLVATION
-------------------------------------------

  The Delley construction of COSMO surface surface is calculated

       Division Level for Surface Triangles (NDIV)                  3
       Final Division Level for Triangles (NFDIV)                   1
       Radius of the Solvent (RSOL)                           1.93000 angstr
  Dielectric Constant (EPSL)                                 78.39000

       COSMO equation is solved iteratively-               conjugate-gradient

       Maximun of Iterations for Charges (NCIX)                  1000
       Criterion for Charge convergence (CCNV)                1.0E-08

  COSMO charges included variationally in SCF

       COSMO included at every SCF cycle

  Geometry-dependent empirical factor                         0.00000

  C-Matrix calculated in cspmtx

  In cspmtx, C-Matrix calculated using fitted potential

-------------------------------------------




 ===============
 G E O M E T R Y  ***  3D  Molecule  ***
 ===============
  

 ATOMS
 =====                            X Y Z                    CHARGE                     RADIUS
                                (Angstrom)             Nucl     +Core       At.Mass (Angstrom)
                       --------------------------    ----------------       ------- ----------
    1  C              -1.0455    0.2209    0.0156      6.00      6.00       12.0000    1.7000
    2  N               0.4302    0.1525    0.0081      7.00      7.00       14.0031    1.6080
    3  O               1.0483    1.1972   -0.0045      8.00      8.00       15.9949    1.5170
    4  O               0.9489   -0.9448   -0.0128      8.00      8.00       15.9949    1.5170
    5  H              -1.3376    1.1404    0.5088      1.00      1.00        1.0078    1.3500
    6  H              -1.4213   -0.6653    0.5132      1.00      1.00        1.0078    1.3500
    7  H              -1.3524    0.2322   -1.0284      1.00      1.00        1.0078    1.3500


 FRAGMENTS
 =========                                     Atoms in this Fragment     Cart. coord.s (Angstrom)
                                               -------------------------------------------------------
    1  C                                                 1  C           -1.0455    0.2209    0.0156
    2  N                                                 2  N            0.4302    0.1525    0.0081
    3  O                                                 3  O            1.0483    1.1972   -0.0045
    4  O                                                 4  O            0.9489   -0.9448   -0.0128
    5  H                                                 5  H           -1.3376    1.1404    0.5088
    6  H                                                 6  H           -1.4213   -0.6653    0.5132
    7  H                                                 7  H           -1.3524    0.2322   -1.0284


 Interatomic Distance Matrix (Angstrom)
 --------------------------------------

   1)     0.000
   2)     1.477   0.000
   3)     2.310   1.214   0.000
   4)     2.310   1.214   2.144   0.000
   5)     1.084   2.086   2.441   3.138   0.000
   6)     1.084   2.086   3.136   2.444   1.808   0.000
   7)     1.088   2.064   2.783   2.777   1.786   1.785   0.000

 Min. Distance =    1.0836
 Max. Distance =    3.1383



 =====================================
 S Y M M E T R Y ,   E L E C T R O N S
 =====================================
  
 Symmetry: NOSYM

 Irreducible Representations, including subspecies
 -------------------------------------------------
 A

 Symmetry is NOT used when fitting density


 Configuration of Valence Electrons
 ==================================
 ( determined in the SCF procedure )

 Total:   32

 Net Charge: 0 (Nuclei minus Electrons)

 Aufbau principle for MO occupations will be applied through SCF cycle no.     150
 Thereafter, the program will assign electrons to MOs that are spatially
 similar to the occupied MOs in a "reference" cycle ("KeepOrbitals").
 The reference cycle is always the PREVIOUS cycle: it will evolve with
 the SCF procedure.
1
 ***************************************************************************************************



                                      ****************************************
                                      *  B U I L D : (Fragments, Functions)  *
                                      ****************************************
  



 =======
 S F O s  ***  (Symmetrized Fragment Orbitals)  ***
 =======
  
 SFOs are linear combinations of (valence) Fragment Orbitals (FOs), such that the SFOs transform as the
 irreducible representations of the (molecular) symmetry group. Each SFO is therefore characterized by
 an irrep of the molecule and by a few (or only one) generating FOs.
 The SFOs constitute a symmetry-adapted basis for the Fock matrix. The MO eigenvector coefficients in
 this basis provide a direct interpretation of the MOs in terms of Frontier Orbital Theory.

 The SFOs are combined with auxiliary Core Functions (CFs) to ensure orthogonalization on the (frozen)
 Core Orbitals (COs). The Core-orthogonalized SFOs (CSFOs) constitute the true Fock basis.

 The FOs, and hence also the (C)SFOs are combinations of the elementary basis functions (BAS). The basis
 functions that participate in the description of the SFOs depend on the irrep. The indices of the
 involved functions are printed below for each irrep.
 (The complete list of primitive basis functions is printed in another section)

 Total nr. of (C)SFOs (summation over all irreps) :   137

 NOTE: a (C)SFO that is defined as a combination of more than one FO is usually NOT normalized.



                                       === A ===
 Nr. of SFOs :  137
 Cartesian basis functions that participate in this irrep (total number =   156) :
      1     2     3     4     5     6     9    12     7    10
     13     8    11    14    15    16    17    18    19    20
     21    22    23    24    25    26    27    28    29    30
     31    32    33    34    35    36    39    42    37    40
     43    38    41    44    45    46    47    48    49    50
     51    52    53    54    55    56    57    58    59    60
     61    62    63    64    65    66    69    72    67    70
     73    68    71    74    75    76    77    78    79    80
     81    82    83    84    85    86    87    88    89    90
     91    92    93    94    95    96    99   102    97   100
    103    98   101   104   105   106   107   108   109   110
    111   112   113   114   115   116   117   118   119   120
    121   122   123   124   125   126   127   128   129   130
    131   132   133   134   135   136   137   138   139   140
    141   142   143   144   145   146   147   148   149   150
    151   152   153   154   155   156

    SFO  (index         Fragment          Generating    Expansion in Fragment Orbitals
  indx  incl.CFs)   Occup   Orb.Energy   FragmentType  Coeff.   Orbital     on Fragment
 --------------------------------------------------------------------------------------
     1       1      2.000     -10.406 au  C             1.00      1 S               1
                        (    -283.169 eV)
     2       2      2.000      -0.583 au  C             1.00      2 S               1
                        (     -15.858 eV)
     3       3       --         0.415 au  C             1.00      3 S               1
                        (      11.281 eV)
     4       4       --         5.555 au  C             1.00      4 S               1
                        (     151.157 eV)
     5       5       --        50.670 au  C             1.00      5 S               1
                        (    1378.798 eV)
     6       6      0.667      -0.186 au  C             1.00      1 P:x             1
                        (      -5.051 eV)
     7       7       --         0.203 au  C             1.00      2 P:x             1
                        (       5.518 eV)
     8       8       --         2.125 au  C             1.00      3 P:x             1
                        (      57.838 eV)
     9       9      0.667      -0.186 au  C             1.00      1 P:y             1
                        (      -5.051 eV)
    10      10       --         0.203 au  C             1.00      2 P:y             1
                        (       5.518 eV)
    11      11       --         2.125 au  C             1.00      3 P:y             1
                        (      57.838 eV)
    12      12      0.667      -0.186 au  C             1.00      1 P:z             1
                        (      -5.051 eV)
    13      13       --         0.203 au  C             1.00      2 P:z             1
                        (       5.518 eV)
    14      14       --         2.125 au  C             1.00      3 P:z             1
                        (      57.838 eV)
    15      15       --         1.300 au  C             1.00      1 D:z2            1
                        (      35.363 eV)
    16      16       --         1.300 au  C             1.00      1 D:x2-y2         1
                        (      35.363 eV)
    17      17       --         1.300 au  C             1.00      1 D:xy            1
                        (      35.363 eV)
    18      18       --         1.300 au  C             1.00      1 D:xz            1
                        (      35.363 eV)
    19      19       --         1.300 au  C             1.00      1 D:yz            1
                        (      35.363 eV)
    20      20       --         4.097 au  C             1.00      1 F:z3            1
                        (     111.488 eV)
    21      21       --         4.097 au  C             1.00      1 F:z             1
                        (     111.488 eV)
    22      22       --         4.097 au  C             1.00      1 F:xyz           1
                        (     111.488 eV)
    23      23       --         4.097 au  C             1.00      1 F:z2x           1
                        (     111.488 eV)
    24      24       --         4.097 au  C             1.00      1 F:z2y           1
                        (     111.488 eV)
    25      25       --         4.097 au  C             1.00      1 F:x             1
                        (     111.488 eV)
    26      26       --         4.097 au  C             1.00      1 F:y             1
                        (     111.488 eV)
    27      27      2.000     -14.556 au  N             1.00      1 S               2
                        (    -396.095 eV)
    28      28      2.000      -0.780 au  N             1.00      2 S               2
                        (     -21.233 eV)
    29      29       --         0.568 au  N             1.00      3 S               2
                        (      15.457 eV)
    30      30       --         7.048 au  N             1.00      4 S               2
                        (     191.781 eV)
    31      31       --        64.537 au  N             1.00      5 S               2
                        (    1756.152 eV)
    32      32      1.000      -0.270 au  N             1.00      1 P:x             2
                        (      -7.358 eV)
    33      33       --         0.326 au  N             1.00      2 P:x             2
                        (       8.876 eV)
    34      34       --         3.419 au  N             1.00      3 P:x             2
                        (      93.045 eV)
    35      35      1.000      -0.270 au  N             1.00      1 P:y             2
                        (      -7.358 eV)
    36      36       --         0.326 au  N             1.00      2 P:y             2
                        (       8.876 eV)
    37      37       --         3.419 au  N             1.00      3 P:y             2
                        (      93.045 eV)
    38      38      1.000      -0.270 au  N             1.00      1 P:z             2
                        (      -7.358 eV)
    39      39       --         0.326 au  N             1.00      2 P:z             2
                        (       8.876 eV)
    40      40       --         3.419 au  N             1.00      3 P:z             2
                        (      93.045 eV)
    41      41       --         1.308 au  N             1.00      1 D:z2            2
                        (      35.583 eV)
    42      42       --         1.308 au  N             1.00      1 D:x2-y2         2
                        (      35.583 eV)
    43      43       --         1.308 au  N             1.00      1 D:xy            2
                        (      35.583 eV)
    44      44       --         1.308 au  N             1.00      1 D:xz            2
                        (      35.583 eV)
    45      45       --         1.308 au  N             1.00      1 D:yz            2
                        (      35.583 eV)
    46      46       --         4.100 au  N             1.00      1 F:z3            2
                        (     111.573 eV)
    47      47       --         4.100 au  N             1.00      1 F:z             2
                        (     111.573 eV)
    48      48       --         4.100 au  N             1.00      1 F:xyz           2
                        (     111.573 eV)
    49      49       --         4.100 au  N             1.00      1 F:z2x           2
                        (     111.573 eV)
    50      50       --         4.100 au  N             1.00      1 F:z2y           2
                        (     111.573 eV)
    51      51       --         4.100 au  N             1.00      1 F:x             2
                        (     111.573 eV)
    52      52       --         4.100 au  N             1.00      1 F:y             2
                        (     111.573 eV)
    53      53      2.000     -19.382 au  O             1.00      1 S               3
                        (    -527.413 eV)
    54      54      2.000      -0.998 au  O             1.00      2 S               3
                        (     -27.149 eV)
    55      55       --         0.858 au  O             1.00      3 S               3
                        (      23.351 eV)
    56      56       --        13.707 au  O             1.00      4 S               3
                        (     372.994 eV)
    57      57       --       123.922 au  O             1.00      5 S               3
                        (    3372.077 eV)
    58      58      1.333      -0.366 au  O             1.00      1 P:x             3
                        (      -9.963 eV)
    59      59       --         0.397 au  O             1.00      2 P:x             3
                        (      10.809 eV)
    60      60       --         3.984 au  O             1.00      3 P:x             3
                        (     108.415 eV)
    61      61      1.333      -0.366 au  O             1.00      1 P:y             3
                        (      -9.963 eV)
    62      62       --         0.397 au  O             1.00      2 P:y             3
                        (      10.809 eV)
    63      63       --         3.984 au  O             1.00      3 P:y             3
                        (     108.415 eV)
    64      64      1.333      -0.366 au  O             1.00      1 P:z             3
                        (      -9.963 eV)
    65      65       --         0.397 au  O             1.00      2 P:z             3
                        (      10.809 eV)
    66      66       --         3.984 au  O             1.00      3 P:z             3
                        (     108.415 eV)
    67      67       --         1.128 au  O             1.00      1 D:z2            3
                        (      30.700 eV)
    68      68       --         1.128 au  O             1.00      1 D:x2-y2         3
                        (      30.700 eV)
    69      69       --         1.128 au  O             1.00      1 D:xy            3
                        (      30.700 eV)
    70      70       --         1.128 au  O             1.00      1 D:xz            3
                        (      30.700 eV)
    71      71       --         1.128 au  O             1.00      1 D:yz            3
                        (      30.700 eV)
    72      72       --         3.446 au  O             1.00      1 F:z3            3
                        (      93.778 eV)
    73      73       --         3.446 au  O             1.00      1 F:z             3
                        (      93.778 eV)
    74      74       --         3.446 au  O             1.00      1 F:xyz           3
                        (      93.778 eV)
    75      75       --         3.446 au  O             1.00      1 F:z2x           3
                        (      93.778 eV)
    76      76       --         3.446 au  O             1.00      1 F:z2y           3
                        (      93.778 eV)
    77      77       --         3.446 au  O             1.00      1 F:x             3
                        (      93.778 eV)
    78      78       --         3.446 au  O             1.00      1 F:y             3
                        (      93.778 eV)
    79      79      2.000     -19.382 au  O             1.00      1 S               4
                        (    -527.413 eV)
    80      80      2.000      -0.998 au  O             1.00      2 S               4
                        (     -27.149 eV)
    81      81       --         0.858 au  O             1.00      3 S               4
                        (      23.351 eV)
    82      82       --        13.707 au  O             1.00      4 S               4
                        (     372.994 eV)
    83      83       --       123.922 au  O             1.00      5 S               4
                        (    3372.077 eV)
    84      84      1.333      -0.366 au  O             1.00      1 P:x             4
                        (      -9.963 eV)
    85      85       --         0.397 au  O             1.00      2 P:x             4
                        (      10.809 eV)
    86      86       --         3.984 au  O             1.00      3 P:x             4
                        (     108.415 eV)
    87      87      1.333      -0.366 au  O             1.00      1 P:y             4
                        (      -9.963 eV)
    88      88       --         0.397 au  O             1.00      2 P:y             4
                        (      10.809 eV)
    89      89       --         3.984 au  O             1.00      3 P:y             4
                        (     108.415 eV)
    90      90      1.333      -0.366 au  O             1.00      1 P:z             4
                        (      -9.963 eV)
    91      91       --         0.397 au  O             1.00      2 P:z             4
                        (      10.809 eV)
    92      92       --         3.984 au  O             1.00      3 P:z             4
                        (     108.415 eV)
    93      93       --         1.128 au  O             1.00      1 D:z2            4
                        (      30.700 eV)
    94      94       --         1.128 au  O             1.00      1 D:x2-y2         4
                        (      30.700 eV)
    95      95       --         1.128 au  O             1.00      1 D:xy            4
                        (      30.700 eV)
    96      96       --         1.128 au  O             1.00      1 D:xz            4
                        (      30.700 eV)
    97      97       --         1.128 au  O             1.00      1 D:yz            4
                        (      30.700 eV)
    98      98       --         3.446 au  O             1.00      1 F:z3            4
                        (      93.778 eV)
    99      99       --         3.446 au  O             1.00      1 F:z             4
                        (      93.778 eV)
   100     100       --         3.446 au  O             1.00      1 F:xyz           4
                        (      93.778 eV)
   101     101       --         3.446 au  O             1.00      1 F:z2x           4
                        (      93.778 eV)
   102     102       --         3.446 au  O             1.00      1 F:z2y           4
                        (      93.778 eV)
   103     103       --         3.446 au  O             1.00      1 F:x             4
                        (      93.778 eV)
   104     104       --         3.446 au  O             1.00      1 F:y             4
                        (      93.778 eV)
   105     105      1.000      -0.242 au  H             1.00      1 S               5
                        (      -6.582 eV)
   106     106       --         0.113 au  H             1.00      2 S               5
                        (       3.073 eV)
   107     107       --         1.599 au  H             1.00      3 S               5
                        (      43.507 eV)
   108     108       --         0.445 au  H             1.00      1 P:x             5
                        (      12.103 eV)
   109     109       --         0.445 au  H             1.00      1 P:y             5
                        (      12.103 eV)
   110     110       --         0.445 au  H             1.00      1 P:z             5
                        (      12.103 eV)
   111     111       --         2.628 au  H             1.00      1 D:z2            5
                        (      71.513 eV)
   112     112       --         2.628 au  H             1.00      1 D:x2-y2         5
                        (      71.513 eV)
   113     113       --         2.628 au  H             1.00      1 D:xy            5
                        (      71.513 eV)
   114     114       --         2.628 au  H             1.00      1 D:xz            5
                        (      71.513 eV)
   115     115       --         2.628 au  H             1.00      1 D:yz            5
                        (      71.513 eV)
   116     116      1.000      -0.242 au  H             1.00      1 S               6
                        (      -6.582 eV)
   117     117       --         0.113 au  H             1.00      2 S               6
                        (       3.073 eV)
   118     118       --         1.599 au  H             1.00      3 S               6
                        (      43.507 eV)
   119     119       --         0.445 au  H             1.00      1 P:x             6
                        (      12.103 eV)
   120     120       --         0.445 au  H             1.00      1 P:y             6
                        (      12.103 eV)
   121     121       --         0.445 au  H             1.00      1 P:z             6
                        (      12.103 eV)
   122     122       --         2.628 au  H             1.00      1 D:z2            6
                        (      71.513 eV)
   123     123       --         2.628 au  H             1.00      1 D:x2-y2         6
                        (      71.513 eV)
   124     124       --         2.628 au  H             1.00      1 D:xy            6
                        (      71.513 eV)
   125     125       --         2.628 au  H             1.00      1 D:xz            6
                        (      71.513 eV)
   126     126       --         2.628 au  H             1.00      1 D:yz            6
                        (      71.513 eV)
   127     127      1.000      -0.242 au  H             1.00      1 S               7
                        (      -6.582 eV)
   128     128       --         0.113 au  H             1.00      2 S               7
                        (       3.073 eV)
   129     129       --         1.599 au  H             1.00      3 S               7
                        (      43.507 eV)
   130     130       --         0.445 au  H             1.00      1 P:x             7
                        (      12.103 eV)
   131     131       --         0.445 au  H             1.00      1 P:y             7
                        (      12.103 eV)
   132     132       --         0.445 au  H             1.00      1 P:z             7
                        (      12.103 eV)
   133     133       --         2.628 au  H             1.00      1 D:z2            7
                        (      71.513 eV)
   134     134       --         2.628 au  H             1.00      1 D:x2-y2         7
                        (      71.513 eV)
   135     135       --         2.628 au  H             1.00      1 D:xy            7
                        (      71.513 eV)
   136     136       --         2.628 au  H             1.00      1 D:xz            7
                        (      71.513 eV)
   137     137       --         2.628 au  H             1.00      1 D:yz            7
                        (      71.513 eV)



 ================================
 (Slater-type)  F U N C T I O N S  ***  (Basis and Fit)  ***
 ================================
  

 Atom Type    1  (C)
 ==============

 Valence Basis Sets:  10
 -----------------------
   1 S    7.680000
   1 S    5.000000
   2 S    1.280000
   2 S    2.100000
   2 S    4.600000
   2 P    0.820000
   2 P    1.480000
   2 P    2.940000
   3 D    2.200000
   4 F    3.300000

 Charge Fitting Sets (for the computation of the Coulomb Potential):  22
 -----------------------------------------------------------------------
   1 S   15.360000
   2 S   17.530000
   2 S   12.070000
   2 S    8.310000
   2 S    5.730000
   3 S    5.780000
   3 S    4.220000
   3 S    3.080000
   3 S    2.250000
   3 S    1.640000
   2 P    9.880000
   2 P    5.800000
   3 P    5.050000
   3 P    3.230000
   3 P    2.060000
   3 D    7.200000
   3 D    4.400000
   3 D    2.690000
   3 D    1.640000
   4 F    5.400000
   4 F    3.550000
   5 G    4.500000

 Atom Type    2  (N)
 ==============

 Valence Basis Sets:  10
 -----------------------
   1 S    8.740000
   1 S    5.900000
   2 S    5.150000
   2 S    2.500000
   2 S    1.500000
   2 P    3.680000
   2 P    1.880000
   2 P    1.000000
   3 D    2.200000
   4 F    3.300000

 Charge Fitting Sets (for the computation of the Coulomb Potential):  22
 -----------------------------------------------------------------------
   1 S   17.480000
   2 S   20.150000
   2 S   13.990000
   2 S    9.710000
   2 S    6.740000
   3 S    6.860000
   3 S    5.040000
   3 S    3.700000
   3 S    2.720000
   3 S    2.000000
   2 P   11.320000
   2 P    6.730000
   3 P    5.920000
   3 P    3.820000
   3 P    2.460000
   3 D    8.100000
   3 D    5.080000
   3 D    3.190000
   3 D    2.000000
   4 F    5.800000
   4 F    3.600000
   5 G    4.500000

 Atom Type    3  (O)
 ==============

 Valence Basis Sets:  10
 -----------------------
   1 S    9.800000
   1 S    6.800000
   2 S    7.580000
   2 S    2.880000
   2 S    1.720000
   2 P    4.080000
   2 P    2.080000
   2 P    1.120000
   3 D    2.000000
   4 F    3.000000

 Charge Fitting Sets (for the computation of the Coulomb Potential):  22
 -----------------------------------------------------------------------
   1 S   19.600000
   2 S   22.600000
   2 S   15.680000
   2 S   10.890000
   2 S    7.560000
   3 S    7.690000
   3 S    5.650000
   3 S    4.150000
   3 S    3.050000
   3 S    2.240000
   2 P   12.860000
   2 P    7.680000
   3 P    6.780000
   3 P    4.390000
   3 P    2.840000
   3 D    8.800000
   3 D    5.580000
   3 D    3.530000
   3 D    2.240000
   4 F    6.200000
   4 F    3.700000
   5 G    4.500000

 Atom Type    4  (H)
 ==============

 Valence Basis Sets:   5
 -----------------------
   1 S    0.690000
   1 S    0.920000
   1 S    1.580000
   2 P    1.250000
   3 D    2.500000

 Charge Fitting Sets (for the computation of the Coulomb Potential):  11
 -----------------------------------------------------------------------
   1 S    3.160000
   1 S    2.090000
   1 S    1.380000
   2 S    1.500000
   2 P    4.000000
   2 P    2.650000
   2 P    1.750000
   3 D    4.000000
   3 D    2.500000
   4 F    3.000000
   5 G    4.000000


 BAS: List of all Elementary Cartesian Basis Functions
 =====================================================

 The numbering in the list below (to the right of the function characteristics) is referred
 to in print-outs of MO eigenvectors and Mulliken populations in the BAS representation
 (as contrasted to the SFO representation).

 Notes:
 1. The functions are characterized by a polynomial prefactor (powers of x,y,z and r) and
    an exponential decay factor alpha.
 2. Since the basis sets are specific for an atom TYPE, the individual functions occur on
    all atoms of that type.
 3. The word 'Core' in the left margin signals that it is a Core Function (CF) : not a
    degree of freedom in the valence set, but only used to ensure orthogonalization of
    the other valence basis functions on the frozen Core Orbitals.


 (power of) X  Y  Z  R     Alpha  on Atom
            ==========     =====     ==========

 C                                    1
                                  ---------------------------------------------------------------------------
            0  0  0  0     7.680      1
            0  0  0  0     5.000      2
            0  0  0  1     1.280      3
            0  0  0  1     2.100      4
            0  0  0  1     4.600      5
            1  0  0  0     0.820      6
            0  1  0  0     0.820      7
            0  0  1  0     0.820      8
            1  0  0  0     1.480      9
            0  1  0  0     1.480     10
            0  0  1  0     1.480     11
            1  0  0  0     2.940     12
            0  1  0  0     2.940     13
            0  0  1  0     2.940     14
            2  0  0  0     2.200     15
            1  1  0  0     2.200     16
            1  0  1  0     2.200     17
            0  2  0  0     2.200     18
            0  1  1  0     2.200     19
            0  0  2  0     2.200     20
            3  0  0  0     3.300     21
            2  1  0  0     3.300     22
            2  0  1  0     3.300     23
            1  2  0  0     3.300     24
            1  1  1  0     3.300     25
            1  0  2  0     3.300     26
            0  3  0  0     3.300     27
            0  2  1  0     3.300     28
            0  1  2  0     3.300     29
            0  0  3  0     3.300     30

 N                                    2
                                  ---------------------------------------------------------------------------
            0  0  0  0     8.740     31
            0  0  0  0     5.900     32
            0  0  0  1     5.150     33
            0  0  0  1     2.500     34
            0  0  0  1     1.500     35
            1  0  0  0     3.680     36
            0  1  0  0     3.680     37
            0  0  1  0     3.680     38
            1  0  0  0     1.880     39
            0  1  0  0     1.880     40
            0  0  1  0     1.880     41
            1  0  0  0     1.000     42
            0  1  0  0     1.000     43
            0  0  1  0     1.000     44
            2  0  0  0     2.200     45
            1  1  0  0     2.200     46
            1  0  1  0     2.200     47
            0  2  0  0     2.200     48
            0  1  1  0     2.200     49
            0  0  2  0     2.200     50
            3  0  0  0     3.300     51
            2  1  0  0     3.300     52
            2  0  1  0     3.300     53
            1  2  0  0     3.300     54
            1  1  1  0     3.300     55
            1  0  2  0     3.300     56
            0  3  0  0     3.300     57
            0  2  1  0     3.300     58
            0  1  2  0     3.300     59
            0  0  3  0     3.300     60

 O                                    3    4
                                  ---------------------------------------------------------------------------
            0  0  0  0     9.800     61   91
            0  0  0  0     6.800     62   92
            0  0  0  1     7.580     63   93
            0  0  0  1     2.880     64   94
            0  0  0  1     1.720     65   95
            1  0  0  0     4.080     66   96
            0  1  0  0     4.080     67   97
            0  0  1  0     4.080     68   98
            1  0  0  0     2.080     69   99
            0  1  0  0     2.080     70  100
            0  0  1  0     2.080     71  101
            1  0  0  0     1.120     72  102
            0  1  0  0     1.120     73  103
            0  0  1  0     1.120     74  104
            2  0  0  0     2.000     75  105
            1  1  0  0     2.000     76  106
            1  0  1  0     2.000     77  107
            0  2  0  0     2.000     78  108
            0  1  1  0     2.000     79  109
            0  0  2  0     2.000     80  110
            3  0  0  0     3.000     81  111
            2  1  0  0     3.000     82  112
            2  0  1  0     3.000     83  113
            1  2  0  0     3.000     84  114
            1  1  1  0     3.000     85  115
            1  0  2  0     3.000     86  116
            0  3  0  0     3.000     87  117
            0  2  1  0     3.000     88  118
            0  1  2  0     3.000     89  119
            0  0  3  0     3.000     90  120

 H                                    5    6    7
                                  ---------------------------------------------------------------------------
            0  0  0  0     0.690    121  133  145
            0  0  0  0     0.920    122  134  146
            0  0  0  0     1.580    123  135  147
            1  0  0  0     1.250    124  136  148
            0  1  0  0     1.250    125  137  149
            0  0  1  0     1.250    126  138  150
            2  0  0  0     2.500    127  139  151
            1  1  0  0     2.500    128  140  152
            1  0  1  0     2.500    129  141  153
            0  2  0  0     2.500    130  142  154
            0  1  1  0     2.500    131  143  155
            0  0  2  0     2.500    132  144  156

 Total number of charge fitting functions (nprimf)       486
 Total number of Cartesian basis functions (naos)        156
 Total number of Cartesian core functions  (ncos)          0

1
 ***************************************************************************************************



                                              ***********************
                                              *  T E C H N I C A L  *
                                              ***********************
  



 =============================================================
 P A R A L L E L I Z A T I O N  and  V E C T O R I Z A T I O N
 =============================================================
  
 Nr of parallel processes:                                4
 Maximum vector length in NumInt loops:                 128



 =====================
 S C F   U P D A T E S
 =====================
  
 Max. nr. of cycles:                               300
 Convergence criterion:                              0.0000010000
   secondary criterion:                              0.0010000000

 Mix parameter (when DIIS does not apply):           0.2000000000
 Mixed ADIIS+SDIIS will be used                  
    Max number of expansion vectors:                10
    Pure ADIIS when Max([F,P]) is above              0.1000000000
    Pure SDIIS when Max([F,P]) is below              0.0010000000
 Automatic ElectronSmearing (in case of problematic SCF convergence) disabled



 =================
 P R E C I S I O N  ***  (General: NumInt, NeglectFunctionTails, ...)  ***
 =================
  

 NumInt:           Target precision:                 6.0000000000
 -------           Initial precision:                6.0000000000
                   Min. precision (optimization):    6.0000000000

 Neglect Functions:          Basis functions:        0.1000000000E-07
 ------------------          Fit functions:          0.1000000000E-07



 ===========================
 L I N E A R   S C A L I N G
 ===========================
  

 Cut-off radii density fit:                        0.1000000000E-09
 Overlap cut-off criterion AO matrix elements:     0.1000000000E-07
 Cut-offs for Coulomb potential and fitted density:0.1000000000E-09
 Cut-off criterion for Coulomb multipole terms:    0.1000000000E-09
 Progressive Convergence parameter:                 0.000000000    

 Number of elements of the density matrix on this node (used, total):      3270     12246



 ===========================================
 Numerical Integration : Fuzzy Cells (Becke)
 ===========================================
  
 Becke grid quality: GOOD           
  
 Lebedev angular grid order:             min:  11 max:  31
 Nr. of radial points:                   min:  54 max:  61

 Total nr. of points:      86711
 Nr. of blocks:              678
 Block length:               128
 Nr. of dummy points:         73


 Test of Precision of the Numerical Integration Grid
 ===================================================

 Integral of the Total Core Density:                   0.00000000000000


 -------------------------------------------
  COSMO surface
  Area             =          291.584
  Volume           =          401.414
  Number of Points =          857
 -------------------------------------------



 ========================
 Density Fitting (zlmFit)
 ========================
  
 ZlmFit Fit Quality: GOOD           
  
 Max L-expansion:                        min:   8 max:   9
 Nr. of radial interpolation points:     min:  78 max: 108



 ======================
 RI Hartree-Fock Scheme
 ======================
  
 Fit Set Quality     : GOOD
 Integration Quality : GOOD
 Threshold Quality   : GOOD
 Response Quality    : DEFAULT
 Is Range Separated  :  F
 
 RIHartreeFock Dependency: number of modified vectors:           3



 =====
 S C F  ***  ScaSCF  ***
 =====
  
 Initial density matrix is taken from previous geometry

 CYCLE    1
  ***********************************************************
  ** : orbital data taken from :/tmp/amstmp_ams_kid0.1334074001/GOStep7.rkf
  ***********************************************************
 SCF Error: norm([F,P])=      0.076144410482, max([F,P])=      0.018208365286
 orbitals (Q,E):
 ---------------
 A :7...26           ( 2.00    -0.8651)  ( 2.00    -0.6551)  ( 2.00    -0.5852)  ( 2.00    -0.5691)
                     ( 2.00    -0.5450)  ( 2.00    -0.4826)  ( 2.00    -0.4656)  ( 2.00    -0.3328)
                     ( 2.00    -0.3313)  ( 2.00    -0.3113)  ( 0.00    -0.0704)  ( 0.00     0.0066)
                     ( 0.00     0.0612)  ( 0.00     0.0628)  ( 0.00     0.0689)  ( 0.00     0.1468)
                     ( 0.00     0.1584)  ( 0.00     0.1753)  ( 0.00     0.2457)  ( 0.00     0.2951)

 CYCLE    2
  SDIIS (wt  0.000):  0.6286  0.3714
 A-DIIS (wt  1.000):  0.6261  0.3739
  DIIS coefficients:  0.6261  0.3739
 SCF Error: norm([F,P])=      0.123035636281, max([F,P])=      0.036095409971
 orbitals (Q,E):
 ---------------
 A :7...17           ( 2.00    -0.8524)  ( 2.00    -0.6508)  ( 2.00    -0.5801)  ( 2.00    -0.5697)
                     ( 2.00    -0.5524)  ( 2.00    -0.4694)  ( 2.00    -0.4510)  ( 2.00    -0.3438)
                     ( 2.00    -0.3393)  ( 2.00    -0.3229)  ( 0.00    -0.0721)

 CYCLE    3
  SDIIS (wt  0.000):  0.4220  0.1656  0.4124
 A-DIIS (wt  1.000):  0.2932  0.0000  0.7068
  DIIS coefficients:  0.2932  0.0000  0.7068
 SCF Error: norm([F,P])=      0.046599211265, max([F,P])=      0.011833486645
 orbitals (Q,E):
 ---------------
 A :7...17           ( 2.00    -0.8501)  ( 2.00    -0.6488)  ( 2.00    -0.5811)  ( 2.00    -0.5692)
                     ( 2.00    -0.5556)  ( 2.00    -0.4613)  ( 2.00    -0.4425)  ( 2.00    -0.3454)
                     ( 2.00    -0.3411)  ( 2.00    -0.3243)  ( 0.00    -0.0747)

 CYCLE    4
  SDIIS (wt  0.879): -0.3986  0.1910  1.2076
 A-DIIS (wt  0.121):  0.0000  0.0000  1.0000
  DIIS coefficients: -0.3503  0.1679  1.1824
 SCF Error: norm([F,P])=      0.040618201738, max([F,P])=      0.012998840808
 orbitals (Q,E):
 ---------------
 A :7...17           ( 2.00    -0.8444)  ( 2.00    -0.6483)  ( 2.00    -0.5788)  ( 2.00    -0.5673)
                     ( 2.00    -0.5595)  ( 2.00    -0.4543)  ( 2.00    -0.4351)  ( 2.00    -0.3502)
                     ( 2.00    -0.3446)  ( 2.00    -0.3289)  ( 0.00    -0.0747)

 CYCLE    5
  SDIIS (wt  0.970): -0.1233 -0.0382  0.5149  0.6466
 A-DIIS (wt  0.030):  0.0000  0.0000  0.0000  1.0000
  DIIS coefficients: -0.1196 -0.0371  0.4997  0.6570
 SCF Error: norm([F,P])=      0.012695004242, max([F,P])=      0.003935973801
 orbitals (Q,E):
 ---------------
 A :7...17           ( 2.00    -0.8449)  ( 2.00    -0.6484)  ( 2.00    -0.5800)  ( 2.00    -0.5678)
                     ( 2.00    -0.5600)  ( 2.00    -0.4540)  ( 2.00    -0.4348)  ( 2.00    -0.3506)
                     ( 2.00    -0.3448)  ( 2.00    -0.3290)  ( 0.00    -0.0759)

 CYCLE    6
  SDIIS (wt  1.000):  0.0081 -0.0328  0.0073  0.2341  0.7833
  DIIS coefficients:  0.0081 -0.0328  0.0073  0.2341  0.7833
 SCF Error: norm([F,P])=      0.002757896285, max([F,P])=      0.000742079147
 orbitals (Q,E):
 ---------------
 A :7...17           ( 2.00    -0.8449)  ( 2.00    -0.6484)  ( 2.00    -0.5798)  ( 2.00    -0.5677)
[...]
 *                                                                             *
 *  --------------------------------                                           *
 *   Amsterdam Modeling Suite (AMS)              2020.202                      *
 *  --------------------------------                                           *
 *                                               r90167 2020-12-05             *
 *                                                                             *
 *                                                                             *
 *                              =================                              *
 *                              |               |                              *
 *                              |     N M R     |                              *
 *                              |               |                              *
 *                              =================                              *
 *                                                                             *
 *                                                                             *
 *   Online information and documentation:  https://www.scm.com/support/       *
 *   E-mail:  support@scm.com   info@scm.com                                   *
 *                                                                             *
 *   Scientific publications using AMS results must be properly referenced     *
 *   See the User Manuals (or the web site) for recommended citations          *
 *   The terms and conditions of the End User License Agreement apply to       *
 *   the use of AMS, https://www.scm.com/license-terms/                        *
 *                                                                             *
 **********************  x86_64_linux_intel / intelmpi  ************************
 
 Licensed to: Dr. Miroslav Ilias / Matej Bel University, Department Chemistry, Fac. Natural Sciences / Banska Bystrica / SLOVAKIA
 SCM User ID: u17848
  
 NMR 2020.202  RunTime: Jan30-2021 22:22:01  Nodes: 1  Procs: 4

 Temporary files are created in /tmp/kid_0.1745952045 (0xEF53)


 Communication costs MPI_COMM_WORLD:      0.333 usec per message,   0.0050 usec per 8-byte item
 Communication costs for intra-node:      0.333 usec per message,   0.0041 usec per 8-byte item




 ======================
 RI Hartree-Fock Scheme
 ======================
  
 Fit Set Quality     : GOOD
 Integration Quality : GOOD
 Threshold Quality   : GOOD
 Response Quality    : DEFAULT
 Is Range Separated  :  F
 
 RIHartreeFock Dependency: number of modified vectors:           0
                    
                      **********************************    
                      ||******************************||    
                      ||                              ||    
                      ||  ##   ##  ###  ###  ######   ||    
                      ||  ###  ##  ########  ##   ##  ||    
                      ||  #### ##  ## ## ##  ######   ||    
                      ||  ## ####  ##    ##  ## ##    ||    
                      ||  ##  ###  ##    ##  ##  ##   ||    
                      ||  ##   ##  ##    ##  ##   ##  ||    
                      ||                              ||    
                      | ****************************** |    
                      **********************************    
                    
                            Written for ADF by              
                    
                    Stephen K. Wolff & Georg Schreckenbach  
                    
                      The research group of Tom Ziegler     
                            University of Calgary           
                               Alberta, Canada              
                    
                      Speedups, NBO analysis, g-tensors,    
                       full ZORA SO, and other goodies by   
                         Jochen Autschbach, SUNY Buffalo
                    
 =============================
 NMR Chemical shift References
 =============================
  
 Lead:
 G. Schreckenbach, T. Ziegler, J. Phys. Chem. 99 (1995) 606
  
 Speed-ups:
 J. Autschbach, E. Zurek, J. Phys. Chem. A 107 (2003), 4967
  
 Hybrids:
 M. Krykunov, T. Ziegler, E. van Lenthe, Int. J. of Quantum Chem. 109, 1676 (2009)
  
 Spin-orbit coupling:
 S.K. Wolff, T. Ziegler, E. van Lenthe, E.J. Baerends, J. Chem. Phys. 110, 7689 (1999)
 J. Autschbach, Mol. Phys. 111 (2013), 2544
  
 Paramagnetic:
 J. Autschbach, S. Patchkovskii, B. Pritchard, J. Chem. Theory Comput. 7, 2175 (2011)
  
 NBO analysis:
 J. Autschbach, J. Chem. Phys. 128 (2008), 164112
 J. Autschbach, S. Zheng, Magn. Reson. Chem. 46 (2008), S48
  
 Suggested:
 G. Schreckenbach, T. Ziegler, Int. J. Quantum Chem. 60, 753 (1996)
 G. Schreckenbach, T. Ziegler, Int. J. Quantum Chem. 61 (1997) 899
 S.K. Wolff, T. Ziegler, J. Chem. Phys. 109 (1998) 895
  
 =======================
 ESR g-tensor References
 =======================
  
 Lead:
 J. Autschbach, B. Pritchard, Theor. Chem. Acc. 129 (2011), 453
  
 Suggested:
 G. Schreckenbach, T. Ziegler, J. Phys. Chem. A 101, 3388 (1997)
 
################################################################################
 
 
################################################################################
 
 
              <><><><><><><><><><><><><><><><><><><><><><><><><>
 
                 GENERAL ADF INFORMATION:
                 ------------------------
 
                 TITLE:    *** adf ***                                  
 JOB ID:     1334074001
                 NONLXC:                                                
                 SYMMETRY: NOSYM                                        
                  
                 IOPREL:   0
                 ------>  non-rel. (Re MOs)
 
              <><><><><><><><><><><><><><><><><><><><><><><><><>
 
              ==================================================
 
                 NUCLEAR COORDINATES (ANGSTROMS):
                 --------------------------------
 
                 C  (  1):      -1.0455      0.2209      0.0156
                 N  (  2):       0.4302      0.1525      0.0081
                 O  (  3):       1.0483      1.1972     -0.0045
                 O  (  4):       0.9489     -0.9448     -0.0128
                 H  (  5):      -1.3376      1.1404      0.5088
                 H  (  6):      -1.4213     -0.6653      0.5132
                 H  (  7):      -1.3524      0.2322     -1.0284
 
              ==================================================
 
              <><><><><><><><><><><><><><><><><><><><><><><><><>
 
                 NUMBERS:
                 --------
 
                 number of electrons:     32.00
 
                 ---   AOs   ---          ---   MOs   ---
                 ncor =     0             nocc =    16
                 nval =   156             nvir =   121
                 nbas =   156             nmo  =   137
                 naos =   156             nsot =   137
              ==================================================
                  
                 --------------------------
                     ATOM TYPE: C                        
                 --------------------------
                 === BASIS
                   1S    7.68     VALENCE
                   1S    5.00     VALENCE
                   2S    1.28     VALENCE
                   2S    2.10     VALENCE
                   2S    4.60     VALENCE
                   2P    0.82     VALENCE
                   2P    1.48     VALENCE
                   2P    2.94     VALENCE
                   3D    2.20     VALENCE
                   4F    3.30     VALENCE
                  
                 --------------------------
                     ATOM TYPE: N                        
                 --------------------------
                 === BASIS
                   1S    8.74     VALENCE
                   1S    5.90     VALENCE
                   2S    5.15     VALENCE
                   2S    2.50     VALENCE
                   2S    1.50     VALENCE
                   2P    3.68     VALENCE
                   2P    1.88     VALENCE
                   2P    1.00     VALENCE
                   3D    2.20     VALENCE
                   4F    3.30     VALENCE
                  
                 --------------------------
                     ATOM TYPE: O                        
                 --------------------------
                 === BASIS
                   1S    9.80     VALENCE
                   1S    6.80     VALENCE
                   2S    7.58     VALENCE
                   2S    2.88     VALENCE
                   2S    1.72     VALENCE
                   2P    4.08     VALENCE
                   2P    2.08     VALENCE
                   2P    1.12     VALENCE
                   3D    2.00     VALENCE
                   4F    3.00     VALENCE
                  
                 --------------------------
                     ATOM TYPE: H                        
                 --------------------------
                 === BASIS
                   1S    0.69     VALENCE
                   1S    0.92     VALENCE
                   1S    1.58     VALENCE
                   2P    1.25     VALENCE
                   3D    2.50     VALENCE
                  
              ==================================================
              <><><><><><><><><><><><><><><><><><><><><><><><><>
 
                 TENSOR INFORMATION:
                 -------------------
 
                              CALC                   U1K
 
                 paramagnetic  = T     mass-velocity = F
                 diamagnetic   = T     Darwin        = F
                 Fermi-cont.   = F     Zeeman        = F
                 ZORA SO       = F     ZORA SO       = F
                 ZORA SCALE    = F     ZORA SO FULL  = F
                 ZORA SO 1C    = F     E IN U1 SCL   = F
 
              <><><><><><><><><><><><><><><><><><><><><><><><><>
 
              <><><><><><><><><><><><><><><><><><><><><><><><><>
 
                 OUTPUT SWITCHES:
                 ----------------
 
                           ISO = T                F1 = F
                          TENS = T                S1 = F
                           EIG = F                U1 = F
                           AOP = F                B1 = F
                           AOD = F                F  = F
                           AOF = F                 S = F
                          INFO = F              REFS = F
 
              <><><><><><><><><><><><><><><><><><><><><><><><><>
 
              --------------------------------------------------
 
                 CALCULATE THE POTENTIAL? F
                  
                 ---> Potential is already on TAPE10.
                      It will not be re-calculated.
 
              --------------------------------------------------



 ===========================
 L I N E A R   S C A L I N G
 ===========================
  

 Overlap cut-off criterion AO matrix elements:     0.1000000000E-07
 ========================
 STARTING A NEW SCF. Step            1
 CRIT   1.00000000000000     
 CRIT   1.00000000000000     
 CRIT   1.00000000000000     
 ========================
 STARTING A NEW SCF. Step            2
 CRIT   5.32542945639033     
 CRIT   7.06612857595038     
 CRIT   2.14676293618727     
 ========================
 STARTING A NEW SCF. Step            3
 CRIT  0.814810615252502     
 CRIT  0.602472622122988     
 CRIT  0.232127258935752     
 ========================
 STARTING A NEW SCF. Step            4
 CRIT  8.709709924595957E-002
 CRIT  4.279787136174607E-002
 CRIT  2.790383671912033E-002
 ========================
 STARTING A NEW SCF. Step            5
 CRIT  4.567015299884522E-003
 CRIT  3.851665367110893E-003
 CRIT  5.071681913163466E-003
 ========================
 STARTING A NEW SCF. Step            6
 CRIT  6.188406936202876E-004
 CRIT  5.801672929548725E-004
 CRIT  5.991147591883079E-004
 ========================
 STARTING A NEW SCF. Step            7
 CRIT  9.279921291862711E-005
 CRIT  7.716644916337914E-005
 CRIT  4.611062645212263E-005
 ========================
 STARTING A NEW SCF. Step            8
 CRIT  5.223734524598204E-006
 CRIT  5.275821096706533E-006
 CRIT  4.285118552822800E-006
 ========================
 STARTING A NEW SCF. Step            9
 CRIT  4.370960168650206E-007
 CRIT  4.200513798110850E-007
 CRIT  7.699537380203050E-007
################################################################################
********************************************************************************
****  N U C L E U S : N(2)
 
 ADF-GUI atom: N(2)
 Internal NMR numbering of atoms: N(2)
 
 
================================================================================
 
 
===  PARAMAGNETIC NMR SHIELDING TENSORS (ppm)
 
    ===     paramagnetic b^(1) tensor       ===     paramagnetic u^(1) tensor
    -----------------------------------     -----------------------------------
           0.000     0.000     0.000            -643.090    -1.377     6.546
           0.000     0.000     0.000              -1.377  -655.113    -1.433
           0.000     0.000     0.000               6.546    -1.433  -340.597
    -----------------------------------     -----------------------------------
              isotropic =      0.000                  isotropic =   -546.267

    ===     paramagnetic s^(1) tensor       ===     paramagnetic gauge tensor
    -----------------------------------     -----------------------------------
          56.814     2.074     1.503              -0.400     0.070    -0.180
           2.074    84.981    -0.357               0.070    -0.241     0.042
           1.503    -0.357   141.200              -0.180     0.042    -9.339
    -----------------------------------     -----------------------------------
              isotropic =     94.331                  isotropic =     -3.327

                        ***********************************
                        CARTESIAN AXIS REPRESENTATION

                        ==== total paramagnetic tensor
                        -----------------------------------
                            -586.675     0.767     7.869
                               0.767  -570.373    -1.749
                               7.869    -1.749  -208.737
                        -----------------------------------
                                  isotropic =   -455.262

                        ***********************************
                        -----------------------------------
                        PRINCIPAL AXIS REPRESENTATION

                        ==== Principal components:

                            -586.878  -570.343  -208.565
 
                        ==== Principal Axis System:

                               0.999     0.049     0.021
                              -0.049     0.999    -0.005
                              -0.021     0.004     1.000
                        -----------------------------------
 
================================================================================
 
 
===  DIAMAGNETIC NMR SHIELDING TENSORS (ppm)
 
    ===       diamagnetic core tensor       ===    diamagnetic valence tensor
    -----------------------------------     -----------------------------------
           0.000     0.000     0.000             304.268     0.617    -0.413
           0.000     0.000     0.000               0.617   317.391     0.202
           0.000     0.000     0.000              -0.413     0.202   270.365
    -----------------------------------     -----------------------------------
              isotropic =      0.000                  isotropic =    297.342

                        ***********************************
                        CARTESIAN AXIS REPRESENTATION

                        ==== total diamagnetic tensor
                        -----------------------------------
                             304.268     0.617    -0.413
                               0.617   317.391     0.202
                              -0.413     0.202   270.365
                        -----------------------------------
                                  isotropic =    297.342

                        ***********************************
                        -----------------------------------
                        PRINCIPAL AXIS REPRESENTATION

                        ==== Principal components:

                             270.359   304.245   317.421
 
                        ==== Principal Axis System:

                               0.012     0.999     0.047
                              -0.004    -0.047     0.999
                               1.000    -0.012     0.004
                        -----------------------------------
 
================================================================================
 
 
===  TOTAL NMR SHIELDING TENSOR (ppm)
 
                        ***********************************
                        CARTESIAN AXIS REPRESENTATION

                        ==== total shielding tensor
                        -----------------------------------
                            -282.407     1.384     7.456
                               1.384  -252.982    -1.547
                               7.456    -1.547    61.629
                        -----------------------------------
                                  isotropic =   -157.920

                        ***********************************
                        -----------------------------------
                        PRINCIPAL AXIS REPRESENTATION

                        ==== Principal components:

                            -282.636  -252.922    61.797
 
                        ==== Principal Axis System:

                               0.999     0.048     0.022
                              -0.048     0.999    -0.005
                              -0.022     0.004     1.000
                        -----------------------------------
 *******************************************************************************

                             N M R   E X I T
 NORMAL TERMINATION



 =================
 Timing Statistics
 =================
  
 Total Used :                     CPU=       17.51      System=        0.48     Elapsed=       19.96

 Calls  Section                     ( Mean, Percentage )
 ---------------------------------------------------------------------------------------------------
     3  ><      ................      0.00    0.07             0.00    0.28             0.01    0.15
     1  INIT    ................      0.37    2.11             0.01    1.19             0.50    2.50
     1  RDEIGX  ................      9.49   54.18             0.12   24.19            11.10   55.58
     1  AOF1K   ................      0.44    2.51             0.00    0.00             0.58    2.91
     1  AOPKK   ................      6.47   36.98             0.33   69.32             7.00   35.09
     1  XSIGP   ................      0.00    0.00             0.00    0.00             0.00    0.00
     1  AODKKK  ................      0.72    4.14             0.02    4.17             0.74    3.73
     1  XDV     ................      0.00    0.00             0.00    0.00             0.00    0.00
     1  XSIGD   ................      0.00    0.00             0.00    0.00             0.00    0.00
     1  EXIT PROCEDURE .........      0.00    0.01             0.00    0.84             0.01    0.03


 Currently Open Files (EXIT00)
 ====================

 Unit    Access Format  Status   Type       Ident (file)
 -------------------------------------------------------
   3      SEQ    FORM   TRANSP  NORMAL      LOGFILE
                                          ( /home/milias/work/projects/open-collection/theoretical_chemistry/projects/nmr_diplomovky/reference_compounds/nitromethane/ams/pbe0_tz2p_good/nitromethane.geopt_freq_nmr_shield_pbe0_tz2p_good_cosmo-h2o.logfile )
