

 Parallel Execution: Process Information
 ==============================================================================
 Rank   Node Name                              NodeID   MyNodeRank  NodeMaster
    0   ubuntu-kch                                0          0          0
    1   ubuntu-kch                                0          1         -1
    2   ubuntu-kch                                0          2         -1
    3   ubuntu-kch                                0          3         -1
 ==============================================================================


May use up to 7570MB of RAM as shared memory on node 0

 *******************************************************************************
 *                                                                             *
 *  --------------------------------                                           *
 *   Amsterdam Modeling Suite (AMS)              2020.202                      *
 *  --------------------------------                                           *
 *                                               r90167 2020-12-05             *
 *                                                                             *
 *                                                                             *
 *                              =================                              *
 *                              |               |                              *
 *                              |     A M S     |                              *
 *                              |               |                              *
 *                              =================                              *
 *                                                                             *
 *                                                                             *
 *   Online information and documentation:  https://www.scm.com/support/       *
 *   E-mail:  support@scm.com   info@scm.com                                   *
 *                                                                             *
 *   Scientific publications using AMS results must be properly referenced     *
 *   See the User Manuals (or the web site) for recommended citations          *
 *   The terms and conditions of the End User License Agreement apply to       *
 *   the use of AMS, https://www.scm.com/license-terms/                        *
 *                                                                             *
 **********************  x86_64_linux_intel / intelmpi  ************************
 
 Licensed to: Dr. Miroslav Ilias / Matej Bel University, Department Chemistry, Fac. Natural Sciences / Banska Bystrica / SLOVAKIA
 SCM User ID: u17848
  
 AMS 2020.202  RunTime: Feb15-2021 19:30:36  Nodes: 1  Procs: 4

 AMS jobname: ams
 AMS jobid  : 498366224

 Start   directory: /home/milias/work/projects/open-collection/theoretical_chemistry/projects/nmr_diplomovky/reference_compounds/nitromethane/ams/pbe0_tz2p_good/tmp.milias.975477.0.noindex/
 Results directory: /home/milias/work/projects/open-collection/theoretical_chemistry/projects/nmr_diplomovky/reference_compounds/nitromethane/ams/pbe0_tz2p_good/nitromethane.geopt_freq_nmr_shield_pbe0_tz2p_good_cosmo-h2o.results/
 Scratch directory: /tmp/amstmp_ams_kid0.498366224/


 Communication costs MPI_COMM_WORLD:      0.251 usec per message,   0.0034 usec per 8-byte item
 Communication costs for intra-node:      0.271 usec per message,   0.0034 usec per 8-byte item

 RNG seed: -226615954 2040457073 -191156537 -1354938636 -563461707 1938904806 -761561095 1511837778



                        ********************************************************************
                        *  ADF 2020.202  RunTime: Feb15-2021 19:30:37  Nodes: 1  Procs: 4  *
                        ********************************************************************
  
       ***************************
       *  GEOMETRY OPTIMIZATION  *
       ***************************

Optimization Method                    Quasi Newton
Optimization Coordinates               Delocalized Coordinates
Optimize lattice                       F
 
 ------------------------------------------------------
 Convergence criteria (Hartree,Angstrom)
 ------------------------------------------------------
 Maximum gradient               0.001000000000
 Maximum rms gradient           0.000666666667
 Maximum step allowed           0.001000000000
 Maximum rms step allowed       0.000666666667
 Maximum energy change allowe   0.000070000000
 Maximum stress energy allowe   0.000500000000
 
Initial model Hessian                  Automatic Hessian
 
------------------------------------
Quasi-Newton Optimizer Parameters
------------------------------------
Hessian Update Method                  BFGS
Maximum number of steps                  250
First GDIIS cycle                          0
Maximum GDIIS vectors                      0
Trust radius (bohr)                        0.200000
Trust radius varies                        T
Constraints converged at all steps         T
Use projector                              T
 
 Rigid motions settings for: old optimizer
 Atomic rotations (x,y,z):     T T T
 Atomic translations (x,y,z):  T T T
 Tolerance:                   1.000000000000000E-006
 
--------
Geometry
--------
Atoms
  Index Symbol   x (angstrom)   y (angstrom)   z (angstrom)
      1      C     0.64609673     0.01003897     0.00000000       adf.R=1.700
      2      N    -0.76241969     0.01029857     0.00000000       adf.R=1.608
      3      O    -1.39955132     0.00649586     1.07218041       adf.R=1.517
      4      O    -1.39955132     0.00649586    -1.07218041       adf.R=1.517
      5      H     0.98628627     0.50193615     0.90375083       adf.R=1.350
      6      H     0.98628627     0.50193615    -0.90375083       adf.R=1.350
      7      H     0.94285306    -1.03720155     0.00000000       adf.R=1.350
 
Total System Charge             0.00000
Bonding info available!
 
 
----------------
ADF Engine Input
----------------
 
 Basis
 Type TZ2P
 Core None
 End
 Save TAPE10
 XC
 Hybrid PBE0
 End
 Relativity
 Level None
 End
 Solvation
 Surf Delley
 Solv name=Water cav0=0.0 cav1=0.0067639
 Charged method=CONJ
 C-Mat POT
 SCF VAR ALL
 CSMRSP
 End
 NumericalQuality Good
 

 Title: *** (NO TITLE) ***

Number of symmetry operators: 2
Schoenflies symbol:           C(S)
 Using automatic Hessian for delocalized coordinates.
 *** GOStep1 ***

 SOLVATION
-------------------------------------------

  The Delley construction of COSMO surface surface is calculated

       Division Level for Surface Triangles (NDIV)                  3
       Final Division Level for Triangles (NFDIV)                   1
       Radius of the Solvent (RSOL)                           1.93000 angstr
  Dielectric Constant (EPSL)                                 78.39000

       COSMO equation is solved iteratively-               conjugate-gradient

       Maximun of Iterations for Charges (NCIX)                  1000
       Criterion for Charge convergence (CCNV)                1.0E-08

  COSMO charges included variationally in SCF

       COSMO included at every SCF cycle

  Geometry-dependent empirical factor                         0.00000

  C-Matrix calculated in cspmtx

  In cspmtx, C-Matrix calculated using fitted potential

-------------------------------------------



 -------------------------------------------
  COSMO surface
  Area             =          292.090
  Volume           =          401.855
  Number of Points =          869
 -------------------------------------------



 ======================
 RI Hartree-Fock Scheme
 ======================
  
 Fit Set Quality     : GOOD
 Integration Quality : GOOD
 Threshold Quality   : GOOD
 Response Quality    : DEFAULT
 Is Range Separated  :  F
 
 RIHartreeFock Dependency: number of modified vectors:           3
 cosmo_calcen: 0.5 (esolb+esolc) (Hartrees) =   -0.019086

 Solvation energy (screening term,uncorrected) =    -11.976633 kcal/mol

 Solvation energy (dispersion and cavitation terms) =      0.546185 kcal/mol
 Solvation Energy Contributions (Hartrees)
          esola   esolb+esolc
     0.01908598   -0.03817196
 esol last cycle   -0.01908598
  
 Hartree-Fock exchange energy:   -29.1484516982073     
 cosmo_calcen: 0.5 (esolb+esolc) (Hartrees) =   -0.019086

 Solvation energy (screening term,uncorrected) =    -11.976635 kcal/mol

 Solvation energy (dispersion and cavitation terms) =      0.546185 kcal/mol
 Solvation Energy Contributions (Hartrees)
          esola   esolb+esolc
     0.01908598   -0.03817196
 esol last cycle   -0.01908598
  pauli hf:                              0.814336253398811         22.1592           511.00          2138.04
  elstat hf:                            -0.736008259868336        -20.0278          -461.85         -1932.39

 Energy gradients wrt nuclear displacements
 ==========================================

     Atom      Cartesian (a.u./angstrom)
                 X         Y         Z
 ----------------------------------------
     1 C    -0.050725 -0.000259  0.000000
     2 N     0.186936 -0.006708  0.000000
     3 O    -0.062009  0.001677  0.043430
     4 O    -0.062009  0.001677 -0.043430
     5 H    -0.003152  0.001251 -0.000133
     6 H    -0.003152  0.001251  0.000133
     7 H    -0.005890  0.001112  0.000000
 ----------------------------------------
 Mulliken charges used for AMS results%charges...
 
----------------------------------------------------------------------
Geometry Convergence after Step   1       (Hartree/Angstrom,Angstrom)
----------------------------------------------------------------------
current energy                               -1.87102933 Hartree
energy change                      -1.87102933     0.00007000    F
constrained gradient max            0.18693655     0.00100000    F
constrained gradient rms            0.04834908     0.00066667    F
gradient max                        0.18693655
gradient rms                        0.04834908
cart. step max                      0.04284910     0.00100000    F
cart. step rms                      0.01494837     0.00066667    F
 
 
--------
Geometry
--------
Atoms
  Index Symbol   x (angstrom)   y (angstrom)   z (angstrom)
      1      C     0.63565428     0.01441416     0.00000000       adf.R=1.700
      2      N    -0.80526879     0.03846084     0.00000000       adf.R=1.608
      3      O    -1.37370802    -0.00750042     1.07206306       adf.R=1.517
      4      O    -1.37370802    -0.00750042    -1.07206306       adf.R=1.517
      5      H     0.99206732     0.49817727     0.90224648       adf.R=1.350
      6      H     0.99206732     0.49817727    -0.90224648       adf.R=1.350
      7      H     0.93289590    -1.03422870     0.00000000       adf.R=1.350
 
Total System Charge             0.00000
Bonding info available!
 
 *** GOStep2 ***

 SOLVATION
-------------------------------------------

  The Delley construction of COSMO surface surface is calculated

       Division Level for Surface Triangles (NDIV)                  3
       Final Division Level for Triangles (NFDIV)                   1
       Radius of the Solvent (RSOL)                           1.93000 angstr
  Dielectric Constant (EPSL)                                 78.39000

       COSMO equation is solved iteratively-               conjugate-gradient

       Maximun of Iterations for Charges (NCIX)                  1000
       Criterion for Charge convergence (CCNV)                1.0E-08

  COSMO charges included variationally in SCF

       COSMO included at every SCF cycle

  Geometry-dependent empirical factor                         0.00000

  C-Matrix calculated in cspmtx

  In cspmtx, C-Matrix calculated using fitted potential

-------------------------------------------



 -------------------------------------------
  COSMO surface
  Area             =          291.258
  Volume           =          400.872
  Number of Points =          857
 -------------------------------------------



 ======================
 RI Hartree-Fock Scheme
 ======================
  
 Fit Set Quality     : GOOD
 Integration Quality : GOOD
 Threshold Quality   : GOOD
 Response Quality    : DEFAULT
 Is Range Separated  :  F
 
 RIHartreeFock Dependency: number of modified vectors:           3
 cosmo_calcen: 0.5 (esolb+esolc) (Hartrees) =   -0.016371

 Solvation energy (screening term,uncorrected) =    -10.272824 kcal/mol

 Solvation energy (dispersion and cavitation terms) =      0.544629 kcal/mol
 Solvation Energy Contributions (Hartrees)
          esola   esolb+esolc
     0.01637078   -0.03274157
 esol last cycle   -0.01637078
  
 Hartree-Fock exchange energy:   -29.1944116349351     
 cosmo_calcen: 0.5 (esolb+esolc) (Hartrees) =   -0.016371

 Solvation energy (screening term,uncorrected) =    -10.272819 kcal/mol

 Solvation energy (dispersion and cavitation terms) =      0.544629 kcal/mol
 Solvation Energy Contributions (Hartrees)
          esola   esolb+esolc
     0.01637078   -0.03274156
 esol last cycle   -0.01637078
  pauli hf:                              0.810022889682352         22.0418           508.30          2126.71
  elstat hf:                            -0.756909605404702        -20.5966          -474.97         -1987.27

 Energy gradients wrt nuclear displacements
 ==========================================

     Atom      Cartesian (a.u./angstrom)
                 X         Y         Z
 ----------------------------------------
     1 C    -0.036997 -0.006507  0.000000
     2 N     0.027941  0.024237  0.000000
     3 O     0.004106 -0.008253 -0.002676
     4 O     0.004106 -0.008253  0.002676
     5 H    -0.000679 -0.000335  0.000209
     6 H    -0.000679 -0.000335 -0.000209
     7 H     0.002202 -0.000555  0.000000
 ----------------------------------------
 Mulliken charges used for AMS results%charges...

 dE(predicted):    -0.53927E-02, dE(actual):    -0.53638E-02, Trust radius:    0.400000, all in a.u.
 
----------------------------------------------------------------------
Geometry Convergence after Step   2       (Hartree/Angstrom,Angstrom)
----------------------------------------------------------------------
current energy                               -1.87639310 Hartree
energy change                      -0.00536377     0.00007000    F
constrained gradient max            0.03699673     0.00100000    F
constrained gradient rms            0.01189219     0.00066667    F
gradient max                        0.03699673
gradient rms                        0.01189219
cart. step max                      0.09167767     0.00100000    F
cart. step rms                      0.02957830     0.00066667    F
 
 
--------
Geometry
--------
Atoms
  Index Symbol   x (angstrom)   y (angstrom)   z (angstrom)
      1      C     0.63998360    -0.00062692    -0.00000000       adf.R=1.700
      2      N    -0.83054295    -0.05321683    -0.00000000       adf.R=1.608
      3      O    -1.37620322     0.04425849     1.06890195       adf.R=1.517
      4      O    -1.37620322     0.04425849    -1.06890195       adf.R=1.517
      5      H     0.97668399     0.49911221     0.90137881       adf.R=1.350
      6      H     0.97668399     0.49911221    -0.90137881       adf.R=1.350
      7      H     0.98959782    -1.03289763    -0.00000000       adf.R=1.350
 
Total System Charge             0.00000
Bonding info available!
 
 *** GOStep3 ***

 SOLVATION
-------------------------------------------

  The Delley construction of COSMO surface surface is calculated

       Division Level for Surface Triangles (NDIV)                  3
       Final Division Level for Triangles (NFDIV)                   1
       Radius of the Solvent (RSOL)                           1.93000 angstr
  Dielectric Constant (EPSL)                                 78.39000

       COSMO equation is solved iteratively-               conjugate-gradient

       Maximun of Iterations for Charges (NCIX)                  1000
       Criterion for Charge convergence (CCNV)                1.0E-08

  COSMO charges included variationally in SCF

       COSMO included at every SCF cycle

  Geometry-dependent empirical factor                         0.00000

  C-Matrix calculated in cspmtx

  In cspmtx, C-Matrix calculated using fitted potential

-------------------------------------------



 -------------------------------------------
  COSMO surface
  Area             =          291.061
  Volume           =          400.326
  Number of Points =          867
 -------------------------------------------



 ======================
 RI Hartree-Fock Scheme
 ======================
  
 Fit Set Quality     : GOOD
 Integration Quality : GOOD
 Threshold Quality   : GOOD
 Response Quality    : DEFAULT
 Is Range Separated  :  F
 
 RIHartreeFock Dependency: number of modified vectors:           3
 cosmo_calcen: 0.5 (esolb+esolc) (Hartrees) =   -0.015549

 Solvation energy (screening term,uncorrected) =     -9.757367 kcal/mol

 Solvation energy (dispersion and cavitation terms) =      0.544262 kcal/mol
 Solvation Energy Contributions (Hartrees)
          esola   esolb+esolc
     0.01554935   -0.03109870
 esol last cycle   -0.01554935
  
 Hartree-Fock exchange energy:   -29.2002660588719     
 cosmo_calcen: 0.5 (esolb+esolc) (Hartrees) =   -0.015549

 Solvation energy (screening term,uncorrected) =     -9.757366 kcal/mol

 Solvation energy (dispersion and cavitation terms) =      0.544262 kcal/mol
 Solvation Energy Contributions (Hartrees)
          esola   esolb+esolc
     0.01554935   -0.03109870
 esol last cycle   -0.01554935
  pauli hf:                              0.810996212191706         22.0683           508.91          2129.27
  elstat hf:                            -0.757499712600482        -20.6126          -475.34         -1988.82

 Energy gradients wrt nuclear displacements
 ==========================================

     Atom      Cartesian (a.u./angstrom)
                 X         Y         Z
 ----------------------------------------
     1 C    -0.020613  0.026552  0.000000
     2 N    -0.039738 -0.074854  0.000000
     3 O     0.026493  0.024494 -0.024866
     4 O     0.026493  0.024494  0.024866
     5 H     0.004652  0.000130 -0.000367
     6 H     0.004652  0.000130  0.000367
     7 H    -0.001938 -0.000947  0.000000
 ----------------------------------------
 Mulliken charges used for AMS results%charges...

 dE(predicted):    -0.22902E-02, dE(actual):     0.31708E-02, Trust radius:    0.100000, all in a.u.
 
----------------------------------------------------------------------
Geometry Convergence after Step   3       (Hartree/Angstrom,Angstrom)
----------------------------------------------------------------------
current energy                               -1.87322234 Hartree
energy change                       0.00317076     0.00007000    F
constrained gradient max            0.07485872     0.00100000    F
constrained gradient rms            0.02410355     0.00066667    F
gradient max                        0.07485872
gradient rms                        0.02410355
cart. step max                      0.02236431     0.00100000    F
cart. step rms                      0.00817991     0.00066667    F
 
 
--------
Geometry
--------
Atoms
  Index Symbol   x (angstrom)   y (angstrom)   z (angstrom)
      1      C     0.64828089     0.00105506    -0.00000000       adf.R=1.700
      2      N    -0.82594058    -0.03085252    -0.00000000       adf.R=1.608
      3      O    -1.39060207     0.03381654     1.07264755       adf.R=1.517
      4      O    -1.39060207     0.03381654    -1.07264755       adf.R=1.517
      5      H     0.98519657     0.49817989     0.90230276       adf.R=1.350
      6      H     0.98519657     0.49817989    -0.90230276       adf.R=1.350
      7      H     0.98847070    -1.03419539    -0.00000000       adf.R=1.350
 
Total System Charge             0.00000
Bonding info available!
 
 *** GOStep4 ***

 SOLVATION
-------------------------------------------

  The Delley construction of COSMO surface surface is calculated

       Division Level for Surface Triangles (NDIV)                  3
       Final Division Level for Triangles (NFDIV)                   1
       Radius of the Solvent (RSOL)                           1.93000 angstr
  Dielectric Constant (EPSL)                                 78.39000

       COSMO equation is solved iteratively-               conjugate-gradient

       Maximun of Iterations for Charges (NCIX)                  1000
       Criterion for Charge convergence (CCNV)                1.0E-08

  COSMO charges included variationally in SCF

       COSMO included at every SCF cycle

  Geometry-dependent empirical factor                         0.00000

  C-Matrix calculated in cspmtx

  In cspmtx, C-Matrix calculated using fitted potential

-------------------------------------------



 -------------------------------------------
  COSMO surface
  Area             =          292.241
  Volume           =          401.930
  Number of Points =          866
 -------------------------------------------



 ======================
 RI Hartree-Fock Scheme
 ======================
  
 Fit Set Quality     : GOOD
 Integration Quality : GOOD
 Threshold Quality   : GOOD
 Response Quality    : DEFAULT
 Is Range Separated  :  F
 
 RIHartreeFock Dependency: number of modified vectors:           3
 cosmo_calcen: 0.5 (esolb+esolc) (Hartrees) =   -0.016135

 Solvation energy (screening term,uncorrected) =    -10.124821 kcal/mol

 Solvation energy (dispersion and cavitation terms) =      0.546469 kcal/mol
 Solvation Energy Contributions (Hartrees)
          esola   esolb+esolc
     0.01613493   -0.03226986
 esol last cycle   -0.01613493
  
 Hartree-Fock exchange energy:   -29.1787062716128     
 cosmo_calcen: 0.5 (esolb+esolc) (Hartrees) =   -0.016135

 Solvation energy (screening term,uncorrected) =    -10.124819 kcal/mol

 Solvation energy (dispersion and cavitation terms) =      0.546469 kcal/mol
 Solvation Energy Contributions (Hartrees)
          esola   esolb+esolc
     0.01613492   -0.03226985
 esol last cycle   -0.01613492
  pauli hf:                              0.815720186937244         22.1969           511.87          2141.67
  elstat hf:                            -0.745791573496717        -20.2940          -467.99         -1958.08

 Energy gradients wrt nuclear displacements
 ==========================================

     Atom      Cartesian (a.u./angstrom)
                 X         Y         Z
 ----------------------------------------
     1 C    -0.010112  0.017602  0.000000
     2 N    -0.004621 -0.052169  0.000000
     3 O     0.003675  0.018000 -0.000735
     4 O     0.003675  0.018000  0.000735
     5 H     0.003405 -0.000467 -0.000440
     6 H     0.003405 -0.000467  0.000440
     7 H     0.000574 -0.000499  0.000000
 ----------------------------------------
 Mulliken charges used for AMS results%charges...

 dE(predicted):    -0.26178E-02, dE(actual):    -0.25020E-02, Trust radius:    0.200000, all in a.u.
 
----------------------------------------------------------------------
Geometry Convergence after Step   4       (Hartree/Angstrom,Angstrom)
----------------------------------------------------------------------
current energy                               -1.87572439 Hartree
energy change                      -0.00250204     0.00007000    F
constrained gradient max            0.05218258     0.00100000    F
constrained gradient rms            0.01355013     0.00066667    F
gradient max                        0.05218258
gradient rms                        0.01355013
cart. step max                      0.04528550     0.00100000    F
cart. step rms                      0.01479405     0.00066667    F
 
 
--------
Geometry
--------
Atoms
  Index Symbol   x (angstrom)   y (angstrom)   z (angstrom)
      1      C     0.65370342     0.00794377    -0.00000000       adf.R=1.700
      2      N    -0.81976301     0.01443298    -0.00000000       adf.R=1.608
      3      O    -1.38858452     0.00789691     1.06955033       adf.R=1.517
      4      O    -1.38858452     0.00789691    -1.06955033       adf.R=1.517
      5      H     0.99259961     0.49962856     0.90435700       adf.R=1.350
      6      H     0.99259961     0.49962856    -0.90435700       adf.R=1.350
      7      H     0.95802943    -1.03742767    -0.00000000       adf.R=1.350
 
Total System Charge             0.00000
Bonding info available!
 
 *** GOStep5 ***

 SOLVATION
-------------------------------------------

  The Delley construction of COSMO surface surface is calculated

       Division Level for Surface Triangles (NDIV)                  3
       Final Division Level for Triangles (NFDIV)                   1
       Radius of the Solvent (RSOL)                           1.93000 angstr
  Dielectric Constant (EPSL)                                 78.39000

       COSMO equation is solved iteratively-               conjugate-gradient

       Maximun of Iterations for Charges (NCIX)                  1000
       Criterion for Charge convergence (CCNV)                1.0E-08

  COSMO charges included variationally in SCF

       COSMO included at every SCF cycle

  Geometry-dependent empirical factor                         0.00000

  C-Matrix calculated in cspmtx

  In cspmtx, C-Matrix calculated using fitted potential

-------------------------------------------



 -------------------------------------------
  COSMO surface
  Area             =          292.674
  Volume           =          402.619
  Number of Points =          865
 -------------------------------------------



 ======================
 RI Hartree-Fock Scheme
 ======================
  
 Fit Set Quality     : GOOD
 Integration Quality : GOOD
 Threshold Quality   : GOOD
 Response Quality    : DEFAULT
 Is Range Separated  :  F
 
 RIHartreeFock Dependency: number of modified vectors:           3
 cosmo_calcen: 0.5 (esolb+esolc) (Hartrees) =   -0.016243

 Solvation energy (screening term,uncorrected) =    -10.192786 kcal/mol

 Solvation energy (dispersion and cavitation terms) =      0.547277 kcal/mol
 Solvation Energy Contributions (Hartrees)
          esola   esolb+esolc
     0.01624324   -0.03248647
 esol last cycle   -0.01624324
  
 Hartree-Fock exchange energy:   -29.1855392795595     
 cosmo_calcen: 0.5 (esolb+esolc) (Hartrees) =   -0.016243

 Solvation energy (screening term,uncorrected) =    -10.192785 kcal/mol

 Solvation energy (dispersion and cavitation terms) =      0.547277 kcal/mol
 Solvation Energy Contributions (Hartrees)
          esola   esolb+esolc
     0.01624324   -0.03248647
 esol last cycle   -0.01624324
  pauli hf:                              0.813011363460094         22.1232           510.17          2134.56
  elstat hf:                            -0.748880848905143        -20.3781          -469.93         -1966.19

 Energy gradients wrt nuclear displacements
 ==========================================

     Atom      Cartesian (a.u./angstrom)
                 X         Y         Z
 ----------------------------------------
     1 C    -0.003925  0.000798  0.000000
     2 N    -0.002531 -0.001938  0.000000
     3 O     0.002986  0.000899 -0.007506
     4 O     0.002986  0.000899  0.007506
     5 H    -0.000264 -0.000294  0.000270
     6 H    -0.000264 -0.000294 -0.000270
     7 H     0.001013 -0.000071  0.000000
 ----------------------------------------
 Mulliken charges used for AMS results%charges...

 dE(predicted):    -0.16256E-02, dE(actual):    -0.16290E-02, Trust radius:    0.400000, all in a.u.
 
----------------------------------------------------------------------
Geometry Convergence after Step   5       (Hartree/Angstrom,Angstrom)
----------------------------------------------------------------------
current energy                               -1.87735341 Hartree
energy change                      -0.00162902     0.00007000    F
constrained gradient max            0.00750560     0.00100000    F
constrained gradient rms            0.00275847     0.00066667    F
gradient max                        0.00750560
gradient rms                        0.00275847
cart. step max                      0.00456496     0.00100000    F
cart. step rms                      0.00204485     0.00066667    F
 
 
--------
Geometry
--------
Atoms
  Index Symbol   x (angstrom)   y (angstrom)   z (angstrom)
      1      C     0.65487494     0.00909575    -0.00000000       adf.R=1.700
      2      N    -0.82078499     0.01683952    -0.00000000       adf.R=1.608
      3      O    -1.38876308     0.00540725     1.07355407       adf.R=1.517
      4      O    -1.38876308     0.00540725    -1.07355407       adf.R=1.517
      5      H     0.99498587     0.50044458     0.90408311       adf.R=1.350
      6      H     0.99498587     0.50044458    -0.90408311       adf.R=1.350
      7      H     0.95346447    -1.03763893    -0.00000000       adf.R=1.350
 
Total System Charge             0.00000
Bonding info available!
 
 *** GOStep6 ***

 SOLVATION
-------------------------------------------

  The Delley construction of COSMO surface surface is calculated

       Division Level for Surface Triangles (NDIV)                  3
       Final Division Level for Triangles (NFDIV)                   1
       Radius of the Solvent (RSOL)                           1.93000 angstr
  Dielectric Constant (EPSL)                                 78.39000

       COSMO equation is solved iteratively-               conjugate-gradient

       Maximun of Iterations for Charges (NCIX)                  1000
       Criterion for Charge convergence (CCNV)                1.0E-08

  COSMO charges included variationally in SCF

       COSMO included at every SCF cycle

  Geometry-dependent empirical factor                         0.00000

  C-Matrix calculated in cspmtx

  In cspmtx, C-Matrix calculated using fitted potential

-------------------------------------------



 -------------------------------------------
  COSMO surface
  Area             =          292.659
  Volume           =          402.752
  Number of Points =          865
 -------------------------------------------



 ======================
 RI Hartree-Fock Scheme
 ======================
  
 Fit Set Quality     : GOOD
 Integration Quality : GOOD
 Threshold Quality   : GOOD
 Response Quality    : DEFAULT
 Is Range Separated  :  F
 
 RIHartreeFock Dependency: number of modified vectors:           3
 cosmo_calcen: 0.5 (esolb+esolc) (Hartrees) =   -0.016207

 Solvation energy (screening term,uncorrected) =    -10.169771 kcal/mol

 Solvation energy (dispersion and cavitation terms) =      0.547250 kcal/mol
 Solvation Energy Contributions (Hartrees)
          esola   esolb+esolc
     0.01620656   -0.03241312
 esol last cycle   -0.01620656
  
 Hartree-Fock exchange energy:   -29.1778346839160     
 cosmo_calcen: 0.5 (esolb+esolc) (Hartrees) =   -0.016207

 Solvation energy (screening term,uncorrected) =    -10.169771 kcal/mol

 Solvation energy (dispersion and cavitation terms) =      0.547250 kcal/mol
 Solvation Energy Contributions (Hartrees)
          esola   esolb+esolc
     0.01620656   -0.03241312
 esol last cycle   -0.01620656
  pauli hf:                              0.815353690739749         22.1869           511.64          2140.71
  elstat hf:                            -0.744959131103385        -20.2714          -467.47         -1955.89

 Energy gradients wrt nuclear displacements
 ==========================================

     Atom      Cartesian (a.u./angstrom)
                 X         Y         Z
 ----------------------------------------
     1 C    -0.001200 -0.000023  0.000000
     2 N     0.000599  0.000374  0.000000
     3 O     0.000193 -0.000104  0.002588
     4 O     0.000193 -0.000104 -0.002588
     5 H    -0.000082 -0.000115  0.000135
     6 H    -0.000082 -0.000115 -0.000135
     7 H     0.000378  0.000086  0.000000
 ----------------------------------------
 Mulliken charges used for AMS results%charges...

 dE(predicted):    -0.39016E-04, dE(actual):    -0.26541E-04, Trust radius:    0.400000, all in a.u.
 
----------------------------------------------------------------------
Geometry Convergence after Step   6       (Hartree/Angstrom,Angstrom)
----------------------------------------------------------------------
current energy                               -1.87737995 Hartree
energy change                      -0.00002654     0.00007000    T
constrained gradient max            0.00258774     0.00100000    F
constrained gradient rms            0.00086313     0.00066667    F
gradient max                        0.00258774
gradient rms                        0.00086313
cart. step max                      0.00139048     0.00100000    F
cart. step rms                      0.00073553     0.00066667    F
 
 
--------
Geometry
--------
Atoms
  Index Symbol   x (angstrom)   y (angstrom)   z (angstrom)
      1      C     0.65570597     0.00927548    -0.00000000       adf.R=1.700
      2      N    -0.82082840     0.01667056    -0.00000000       adf.R=1.608
      3      O    -1.39012599     0.00515649     1.07216359       adf.R=1.517
      4      O    -1.39012599     0.00515649    -1.07216359       adf.R=1.517
      5      H     0.99611221     0.50074443     0.90389312       adf.R=1.350
      6      H     0.99611221     0.50074443    -0.90389312       adf.R=1.350
      7      H     0.95315001    -1.03774785    -0.00000000       adf.R=1.350
 
Total System Charge             0.00000
Bonding info available!
 
 *** GOStep7 ***

 SOLVATION
-------------------------------------------

  The Delley construction of COSMO surface surface is calculated

       Division Level for Surface Triangles (NDIV)                  3
       Final Division Level for Triangles (NFDIV)                   1
       Radius of the Solvent (RSOL)                           1.93000 angstr
  Dielectric Constant (EPSL)                                 78.39000

       COSMO equation is solved iteratively-               conjugate-gradient

       Maximun of Iterations for Charges (NCIX)                  1000
       Criterion for Charge convergence (CCNV)                1.0E-08

  COSMO charges included variationally in SCF

       COSMO included at every SCF cycle

  Geometry-dependent empirical factor                         0.00000

  C-Matrix calculated in cspmtx

  In cspmtx, C-Matrix calculated using fitted potential

-------------------------------------------



 -------------------------------------------
  COSMO surface
  Area             =          292.667
  Volume           =          402.753
  Number of Points =          865
 -------------------------------------------



 ======================
 RI Hartree-Fock Scheme
 ======================
  
 Fit Set Quality     : GOOD
 Integration Quality : GOOD
 Threshold Quality   : GOOD
 Response Quality    : DEFAULT
 Is Range Separated  :  F
 
 RIHartreeFock Dependency: number of modified vectors:           3
 cosmo_calcen: 0.5 (esolb+esolc) (Hartrees) =   -0.016254

 Solvation energy (screening term,uncorrected) =    -10.199759 kcal/mol

 Solvation energy (dispersion and cavitation terms) =      0.547265 kcal/mol
 Solvation Energy Contributions (Hartrees)
          esola   esolb+esolc
     0.01625435   -0.03250870
 esol last cycle   -0.01625435
  
 Hartree-Fock exchange energy:   -29.1787972341772     
 cosmo_calcen: 0.5 (esolb+esolc) (Hartrees) =   -0.016254

 Solvation energy (screening term,uncorrected) =    -10.199759 kcal/mol

 Solvation energy (dispersion and cavitation terms) =      0.547265 kcal/mol
 Solvation Energy Contributions (Hartrees)
          esola   esolb+esolc
     0.01625435   -0.03250870
 esol last cycle   -0.01625435
  pauli hf:                              0.815099551021069         22.1800           511.48          2140.04
  elstat hf:                            -0.745269011546566        -20.2798          -467.66         -1956.70

 Energy gradients wrt nuclear displacements
 ==========================================

     Atom      Cartesian (a.u./angstrom)
                 X         Y         Z
 ----------------------------------------
     1 C    -0.000374  0.000134  0.000000
     2 N     0.000452  0.000079  0.000000
     3 O    -0.000209 -0.000076  0.000114
     4 O    -0.000209 -0.000076 -0.000114
     5 H     0.000074 -0.000060  0.000045
     6 H     0.000074 -0.000060 -0.000045
     7 H     0.000192  0.000058  0.000000
 ----------------------------------------
 Mulliken charges used for AMS results%charges...

 dE(predicted):    -0.45951E-05, dE(actual):    -0.50189E-05, Trust radius:    0.400000, all in a.u.
 
---------------------------------------------------------
Geometry Convergence after Step   7       ** CONVERGED **
---------------------------------------------------------
current energy                               -1.87738496 Hartree
energy change                      -0.00000502     0.00007000    T
constrained gradient max            0.00045223     0.00100000    T
constrained gradient rms            0.00016132     0.00066667    T
gradient max                        0.00045223
gradient rms                        0.00016132
cart. step max                      0.00030272     0.00100000    T
cart. step rms                      0.00012728     0.00066667    T
 
Geometry optimization converged

Optimized geometry:
 
--------
Geometry
--------
Atoms
  Index Symbol   x (angstrom)   y (angstrom)   z (angstrom)
      1      C     0.65570597     0.00927548    -0.00000000       adf.R=1.700
      2      N    -0.82082840     0.01667056    -0.00000000       adf.R=1.608
      3      O    -1.39012599     0.00515649     1.07216359       adf.R=1.517
      4      O    -1.39012599     0.00515649    -1.07216359       adf.R=1.517
      5      H     0.99611221     0.50074443     0.90389312       adf.R=1.350
      6      H     0.99611221     0.50074443    -0.90389312       adf.R=1.350
      7      H     0.95315001    -1.03774785    -0.00000000       adf.R=1.350
 
Total System Charge             0.00000
Bonding info available!
 
Performing a single point calculation on the final geometry ...

 *** adf ***



 ===========================
 A T T A C H E D   F I L E S
 ===========================
  
 Restart/tmp/amstmp_ams_kid0.498366224/GOStep7.rkf*** GOStep7 ***



 ===============================
 M O D E L   P A R A M E T E R S
 ===============================
  
 DENSITY FUNCTIONAL POTENTIAL (scf)
    Hybrid:                            PBE0                                    == Not Default ==

 SPIN  (restricted / unrestr.)
    Molecule:                          Restricted                               
    Fragments:                         Restricted                               

 OTHER ASPECTS
    Relativistic Corrections:          ---                                     == Not Default ==

    Nuclear Charge Density Model:      Point Charge Nuclei                      
    Core Treatment:                    Frozen Orbital(s)                        

    Hyperfine or Zeeman Interaction:   ---                                      

 SOLVATION
-------------------------------------------

  The Delley construction of COSMO surface surface is calculated

       Division Level for Surface Triangles (NDIV)                  3
       Final Division Level for Triangles (NFDIV)                   1
       Radius of the Solvent (RSOL)                           1.93000 angstr
  Dielectric Constant (EPSL)                                 78.39000

       COSMO equation is solved iteratively-               conjugate-gradient

       Maximun of Iterations for Charges (NCIX)                  1000
       Criterion for Charge convergence (CCNV)                1.0E-08

  COSMO charges included variationally in SCF

       COSMO included at every SCF cycle

  Geometry-dependent empirical factor                         0.00000

  C-Matrix calculated in cspmtx

  In cspmtx, C-Matrix calculated using fitted potential

-------------------------------------------




 ===============
 G E O M E T R Y  ***  3D  Molecule  ***
 ===============
  

 ATOMS
 =====                            X Y Z                    CHARGE                     RADIUS
                                (Angstrom)             Nucl     +Core       At.Mass (Angstrom)
                       --------------------------    ----------------       ------- ----------
    1  C               0.6557    0.0093   -0.0000      6.00      6.00       12.0000    1.7000
    2  N              -0.8208    0.0167   -0.0000      7.00      7.00       14.0031    1.6080
    3  O              -1.3901    0.0052    1.0722      8.00      8.00       15.9949    1.5170
    4  O              -1.3901    0.0052   -1.0722      8.00      8.00       15.9949    1.5170
    5  H               0.9961    0.5007    0.9039      1.00      1.00        1.0078    1.3500
    6  H               0.9961    0.5007   -0.9039      1.00      1.00        1.0078    1.3500
    7  H               0.9532   -1.0377   -0.0000      1.00      1.00        1.0078    1.3500


 FRAGMENTS
 =========                                     Atoms in this Fragment     Cart. coord.s (Angstrom)
                                               -------------------------------------------------------
    1  C                                                 1  C            0.6557    0.0093   -0.0000
    2  N                                                 2  N           -0.8208    0.0167   -0.0000
    3  O                                                 3  O           -1.3901    0.0052    1.0722
    4  O                                                 4  O           -1.3901    0.0052   -1.0722
    5  H                                                 5  H            0.9961    0.5007    0.9039
    6  H                                                 6  H            0.9961    0.5007   -0.9039
    7  H                                                 7  H            0.9532   -1.0377   -0.0000


 Interatomic Distance Matrix (Angstrom)
 --------------------------------------

   1)     0.000
   2)     1.477   0.000
   3)     2.310   1.214   0.000
   4)     2.310   1.214   2.144   0.000
   5)     1.084   2.086   2.443   3.138   0.000
   6)     1.084   2.086   3.138   2.443   1.808   0.000
   7)     1.088   2.064   2.780   2.780   1.785   1.785   0.000

 Min. Distance =    1.0837
 Max. Distance =    3.1376



 =====================================
 S Y M M E T R Y ,   E L E C T R O N S
 =====================================
  
 Symmetry: C(S)

 Irreducible Representations, including subspecies
 -------------------------------------------------
 AA
 AAA

 Symmetry is NOT used when fitting density


 Configuration of Valence Electrons
 ==================================
 ( determined in the SCF procedure )

 Total:   32

 Net Charge: 0 (Nuclei minus Electrons)

 Aufbau principle for MO occupations will be applied through SCF cycle no.     150
 Thereafter, the program will assign electrons to MOs that are spatially
 similar to the occupied MOs in a "reference" cycle ("KeepOrbitals").
 The reference cycle is always the PREVIOUS cycle: it will evolve with
 the SCF procedure.
1
 ***************************************************************************************************



                                      ****************************************
                                      *  B U I L D : (Fragments, Functions)  *
                                      ****************************************
  



 =======
 S F O s  ***  (Symmetrized Fragment Orbitals)  ***
 =======
  
 SFOs are linear combinations of (valence) Fragment Orbitals (FOs), such that the SFOs transform as the
 irreducible representations of the (molecular) symmetry group. Each SFO is therefore characterized by
 an irrep of the molecule and by a few (or only one) generating FOs.
 The SFOs constitute a symmetry-adapted basis for the Fock matrix. The MO eigenvector coefficients in
 this basis provide a direct interpretation of the MOs in terms of Frontier Orbital Theory.

 The SFOs are combined with auxiliary Core Functions (CFs) to ensure orthogonalization on the (frozen)
 Core Orbitals (COs). The Core-orthogonalized SFOs (CSFOs) constitute the true Fock basis.

 The FOs, and hence also the (C)SFOs are combinations of the elementary basis functions (BAS). The basis
 functions that participate in the description of the SFOs depend on the irrep. The indices of the
 involved functions are printed below for each irrep.
 (The complete list of primitive basis functions is printed in another section)

 Total nr. of (C)SFOs (summation over all irreps) :   137

 NOTE: a (C)SFO that is defined as a combination of more than one FO is usually NOT normalized.



                                       === AA ===
 Nr. of SFOs :   81
 Cartesian basis functions that participate in this irrep (total number =   135) :
      1     2     3     4     5     6     7     9    10    12
     13    20    15    16    18    26    29    21    22    24
     27    31    32    33    34    35    36    37    39    40
     42    43    50    45    46    48    56    59    51    52
     54    57    61    91    62    92    63    93    64    94
     65    95    68    98    71   101    74   104    66    67
     96    97    69    70    99   100    72    73   102   103
     80   110    77    79   107   109    75    76    78   105
    106   108    90   120    86    89   116   119    83    85
     88   113   115   118    81    82    84    87   111   112
    114   117   121   133   122   134   123   135   126   138
    124   125   136   137   132   144   129   131   141   143
    127   128   130   139   140   142   145   146   147   148
    149   156   151   152   154

    SFO  (index         Fragment          Generating    Expansion in Fragment Orbitals
  indx  incl.CFs)   Occup   Orb.Energy   FragmentType  Coeff.   Orbital     on Fragment
 --------------------------------------------------------------------------------------
     1       1      2.000     -10.406 au  C             1.00      1 S               1
                        (    -283.169 eV)
     2       2      2.000      -0.583 au  C             1.00      2 S               1
                        (     -15.858 eV)
     3       3       --         0.415 au  C             1.00      3 S               1
                        (      11.281 eV)
     4       4       --         5.555 au  C             1.00      4 S               1
                        (     151.157 eV)
     5       5       --        50.670 au  C             1.00      5 S               1
                        (    1378.798 eV)
     6       6      0.667      -0.186 au  C             1.00      1 P:x             1
                        (      -5.051 eV)
     7       7       --         0.203 au  C             1.00      2 P:x             1
                        (       5.518 eV)
     8       8       --         2.125 au  C             1.00      3 P:x             1
                        (      57.838 eV)
     9       9      0.667      -0.186 au  C             1.00      1 P:y             1
                        (      -5.051 eV)
    10      10       --         0.203 au  C             1.00      2 P:y             1
                        (       5.518 eV)
    11      11       --         2.125 au  C             1.00      3 P:y             1
                        (      57.838 eV)
    12      12       --         1.300 au  C             1.00      1 D:z2            1
                        (      35.363 eV)
    13      13       --         1.300 au  C             1.00      1 D:x2-y2         1
                        (      35.363 eV)
    14      14       --         1.300 au  C             1.00      1 D:xy            1
                        (      35.363 eV)
    15      15       --         4.097 au  C             1.00      1 F:z2x           1
                        (     111.488 eV)
    16      16       --         4.097 au  C             1.00      1 F:z2y           1
                        (     111.488 eV)
    17      17       --         4.097 au  C             1.00      1 F:x             1
                        (     111.488 eV)
    18      18       --         4.097 au  C             1.00      1 F:y             1
                        (     111.488 eV)
    19      19      2.000     -14.556 au  N             1.00      1 S               2
                        (    -396.095 eV)
    20      20      2.000      -0.780 au  N             1.00      2 S               2
                        (     -21.233 eV)
    21      21       --         0.568 au  N             1.00      3 S               2
                        (      15.457 eV)
    22      22       --         7.048 au  N             1.00      4 S               2
                        (     191.781 eV)
    23      23       --        64.537 au  N             1.00      5 S               2
                        (    1756.152 eV)
    24      24      1.000      -0.270 au  N             1.00      1 P:x             2
                        (      -7.358 eV)
    25      25       --         0.326 au  N             1.00      2 P:x             2
                        (       8.876 eV)
    26      26       --         3.419 au  N             1.00      3 P:x             2
                        (      93.045 eV)
    27      27      1.000      -0.270 au  N             1.00      1 P:y             2
                        (      -7.358 eV)
    28      28       --         0.326 au  N             1.00      2 P:y             2
                        (       8.876 eV)
    29      29       --         3.419 au  N             1.00      3 P:y             2
                        (      93.045 eV)
    30      30       --         1.308 au  N             1.00      1 D:z2            2
                        (      35.583 eV)
    31      31       --         1.308 au  N             1.00      1 D:x2-y2         2
                        (      35.583 eV)
    32      32       --         1.308 au  N             1.00      1 D:xy            2
                        (      35.583 eV)
    33      33       --         4.100 au  N             1.00      1 F:z2x           2
                        (     111.573 eV)
    34      34       --         4.100 au  N             1.00      1 F:z2y           2
                        (     111.573 eV)
    35      35       --         4.100 au  N             1.00      1 F:x             2
                        (     111.573 eV)
    36      36       --         4.100 au  N             1.00      1 F:y             2
                        (     111.573 eV)
    37      37      2.000     -19.382 au  O             0.71      1 S               3
                        (    -527.413 eV)               0.71      1 S               4
    38      38      2.000      -0.998 au  O             0.71      2 S               3
                        (     -27.149 eV)               0.71      2 S               4
    39      39       --         0.858 au  O             0.71      3 S               3
                        (      23.351 eV)               0.71      3 S               4
    40      40       --        13.707 au  O             0.71      4 S               3
                        (     372.994 eV)               0.71      4 S               4
    41      41       --       123.922 au  O             0.71      5 S               3
                        (    3372.077 eV)               0.71      5 S               4
    42      42      1.333      -0.366 au  O             0.71      1 P:x             3
                        (      -9.963 eV)               0.71      1 P:x             4
    43      43       --         0.397 au  O             0.71      2 P:x             3
                        (      10.809 eV)               0.71      2 P:x             4
    44      44       --         3.984 au  O             0.71      3 P:x             3
                        (     108.415 eV)               0.71      3 P:x             4
    45      45      1.333      -0.366 au  O             0.71      1 P:y             3
                        (      -9.963 eV)               0.71      1 P:y             4
    46      46       --         0.397 au  O             0.71      2 P:y             3
                        (      10.809 eV)               0.71      2 P:y             4
    47      47       --         3.984 au  O             0.71      3 P:y             3
                        (     108.415 eV)               0.71      3 P:y             4
    48      48      1.333      -0.366 au  O             0.71      1 P:z             3
                        (      -9.963 eV)              -0.71      1 P:z             4
    49      49       --         0.397 au  O             0.71      2 P:z             3
                        (      10.809 eV)              -0.71      2 P:z             4
    50      50       --         3.984 au  O             0.71      3 P:z             3
                        (     108.415 eV)              -0.71      3 P:z             4
    51      51       --         1.128 au  O             0.71      1 D:z2            3
                        (      30.700 eV)               0.71      1 D:z2            4
    52      52       --         1.128 au  O             0.71      1 D:x2-y2         3
                        (      30.700 eV)               0.71      1 D:x2-y2         4
    53      53       --         1.128 au  O             0.71      1 D:xy            3
                        (      30.700 eV)               0.71      1 D:xy            4
    54      54       --         1.128 au  O             0.71      1 D:xz            3
                        (      30.700 eV)              -0.71      1 D:xz            4
    55      55       --         1.128 au  O             0.71      1 D:yz            3
                        (      30.700 eV)              -0.71      1 D:yz            4
    56      56       --         3.446 au  O             0.71      1 F:z3            3
                        (      93.778 eV)              -0.71      1 F:z3            4
    57      57       --         3.446 au  O             0.71      1 F:z             3
                        (      93.778 eV)              -0.71      1 F:z             4
    58      58       --         3.446 au  O             0.71      1 F:xyz           3
                        (      93.778 eV)              -0.71      1 F:xyz           4
    59      59       --         3.446 au  O             0.71      1 F:z2x           3
                        (      93.778 eV)               0.71      1 F:z2x           4
    60      60       --         3.446 au  O             0.71      1 F:z2y           3
                        (      93.778 eV)               0.71      1 F:z2y           4
    61      61       --         3.446 au  O             0.71      1 F:x             3
                        (      93.778 eV)               0.71      1 F:x             4
    62      62       --         3.446 au  O             0.71      1 F:y             3
                        (      93.778 eV)               0.71      1 F:y             4
    63      63      1.000      -0.242 au  H             0.71      1 S               5
                        (      -6.582 eV)               0.71      1 S               6
    64      64       --         0.113 au  H             0.71      2 S               5
                        (       3.073 eV)               0.71      2 S               6
    65      65       --         1.599 au  H             0.71      3 S               5
                        (      43.507 eV)               0.71      3 S               6
    66      66       --         0.445 au  H             0.71      1 P:x             5
                        (      12.103 eV)               0.71      1 P:x             6
    67      67       --         0.445 au  H             0.71      1 P:y             5
                        (      12.103 eV)               0.71      1 P:y             6
    68      68       --         0.445 au  H             0.71      1 P:z             5
                        (      12.103 eV)              -0.71      1 P:z             6
    69      69       --         2.628 au  H             0.71      1 D:z2            5
                        (      71.513 eV)               0.71      1 D:z2            6
    70      70       --         2.628 au  H             0.71      1 D:x2-y2         5
                        (      71.513 eV)               0.71      1 D:x2-y2         6
    71      71       --         2.628 au  H             0.71      1 D:xy            5
                        (      71.513 eV)               0.71      1 D:xy            6
    72      72       --         2.628 au  H             0.71      1 D:xz            5
                        (      71.513 eV)              -0.71      1 D:xz            6
    73      73       --         2.628 au  H             0.71      1 D:yz            5
                        (      71.513 eV)              -0.71      1 D:yz            6
    74      74      1.000      -0.242 au  H             1.00      1 S               7
                        (      -6.582 eV)
    75      75       --         0.113 au  H             1.00      2 S               7
                        (       3.073 eV)
    76      76       --         1.599 au  H             1.00      3 S               7
                        (      43.507 eV)
    77      77       --         0.445 au  H             1.00      1 P:x             7
                        (      12.103 eV)
    78      78       --         0.445 au  H             1.00      1 P:y             7
                        (      12.103 eV)
    79      79       --         2.628 au  H             1.00      1 D:z2            7
                        (      71.513 eV)
    80      80       --         2.628 au  H             1.00      1 D:x2-y2         7
                        (      71.513 eV)
    81      81       --         2.628 au  H             1.00      1 D:xy            7
                        (      71.513 eV)



                                       === AAA ===
 Nr. of SFOs :   56
 Cartesian basis functions that participate in this irrep (total number =   105) :
      8    11    14    17    19    30    23    25    28    38
     41    44    47    49    60    53    55    58    61    91
     62    92    63    93    64    94    65    95    68    98
     71   101    74   104    66    67    96    97    69    70
     99   100    72    73   102   103    80   110    77    79
    107   109    75    76    78   105   106   108    90   120
     86    89   116   119    83    85    88   113   115   118
     81    82    84    87   111   112   114   117   121   133
    122   134   123   135   126   138   124   125   136   137
    132   144   129   131   141   143   127   128   130   139
    140   142   150   153   155

    SFO  (index         Fragment          Generating    Expansion in Fragment Orbitals
  indx  incl.CFs)   Occup   Orb.Energy   FragmentType  Coeff.   Orbital     on Fragment
 --------------------------------------------------------------------------------------
     1       1      0.667      -0.186 au  C             1.00      1 P:z             1
                        (      -5.051 eV)
     2       2       --         0.203 au  C             1.00      2 P:z             1
                        (       5.518 eV)
     3       3       --         2.125 au  C             1.00      3 P:z             1
                        (      57.838 eV)
     4       4       --         1.300 au  C             1.00      1 D:xz            1
                        (      35.363 eV)
     5       5       --         1.300 au  C             1.00      1 D:yz            1
                        (      35.363 eV)
     6       6       --         4.097 au  C             1.00      1 F:z3            1
                        (     111.488 eV)
     7       7       --         4.097 au  C             1.00      1 F:z             1
                        (     111.488 eV)
     8       8       --         4.097 au  C             1.00      1 F:xyz           1
                        (     111.488 eV)
     9       9      1.000      -0.270 au  N             1.00      1 P:z             2
                        (      -7.358 eV)
    10      10       --         0.326 au  N             1.00      2 P:z             2
                        (       8.876 eV)
    11      11       --         3.419 au  N             1.00      3 P:z             2
                        (      93.045 eV)
    12      12       --         1.308 au  N             1.00      1 D:xz            2
                        (      35.583 eV)
    13      13       --         1.308 au  N             1.00      1 D:yz            2
                        (      35.583 eV)
    14      14       --         4.100 au  N             1.00      1 F:z3            2
                        (     111.573 eV)
    15      15       --         4.100 au  N             1.00      1 F:z             2
                        (     111.573 eV)
    16      16       --         4.100 au  N             1.00      1 F:xyz           2
                        (     111.573 eV)
    17      17      2.000     -19.382 au  O             0.71      1 S               3
                        (    -527.413 eV)              -0.71      1 S               4
    18      18      2.000      -0.998 au  O             0.71      2 S               3
                        (     -27.149 eV)              -0.71      2 S               4
    19      19       --         0.858 au  O             0.71      3 S               3
                        (      23.351 eV)              -0.71      3 S               4
    20      20       --        13.707 au  O             0.71      4 S               3
                        (     372.994 eV)              -0.71      4 S               4
    21      21       --       123.922 au  O             0.71      5 S               3
                        (    3372.077 eV)              -0.71      5 S               4
    22      22      1.333      -0.366 au  O             0.71      1 P:x             3
                        (      -9.963 eV)              -0.71      1 P:x             4
    23      23       --         0.397 au  O             0.71      2 P:x             3
                        (      10.809 eV)              -0.71      2 P:x             4
    24      24       --         3.984 au  O             0.71      3 P:x             3
                        (     108.415 eV)              -0.71      3 P:x             4
    25      25      1.333      -0.366 au  O             0.71      1 P:y             3
                        (      -9.963 eV)              -0.71      1 P:y             4
    26      26       --         0.397 au  O             0.71      2 P:y             3
                        (      10.809 eV)              -0.71      2 P:y             4
    27      27       --         3.984 au  O             0.71      3 P:y             3
                        (     108.415 eV)              -0.71      3 P:y             4
    28      28      1.333      -0.366 au  O             0.71      1 P:z             3
                        (      -9.963 eV)               0.71      1 P:z             4
    29      29       --         0.397 au  O             0.71      2 P:z             3
                        (      10.809 eV)               0.71      2 P:z             4
    30      30       --         3.984 au  O             0.71      3 P:z             3
                        (     108.415 eV)               0.71      3 P:z             4
    31      31       --         1.128 au  O             0.71      1 D:z2            3
                        (      30.700 eV)              -0.71      1 D:z2            4
    32      32       --         1.128 au  O             0.71      1 D:x2-y2         3
                        (      30.700 eV)              -0.71      1 D:x2-y2         4
    33      33       --         1.128 au  O             0.71      1 D:xy            3
                        (      30.700 eV)              -0.71      1 D:xy            4
    34      34       --         1.128 au  O             0.71      1 D:xz            3
                        (      30.700 eV)               0.71      1 D:xz            4
    35      35       --         1.128 au  O             0.71      1 D:yz            3
                        (      30.700 eV)               0.71      1 D:yz            4
    36      36       --         3.446 au  O             0.71      1 F:z3            3
                        (      93.778 eV)               0.71      1 F:z3            4
    37      37       --         3.446 au  O             0.71      1 F:z             3
                        (      93.778 eV)               0.71      1 F:z             4
    38      38       --         3.446 au  O             0.71      1 F:xyz           3
                        (      93.778 eV)               0.71      1 F:xyz           4
    39      39       --         3.446 au  O             0.71      1 F:z2x           3
                        (      93.778 eV)              -0.71      1 F:z2x           4
    40      40       --         3.446 au  O             0.71      1 F:z2y           3
                        (      93.778 eV)              -0.71      1 F:z2y           4
    41      41       --         3.446 au  O             0.71      1 F:x             3
                        (      93.778 eV)              -0.71      1 F:x             4
    42      42       --         3.446 au  O             0.71      1 F:y             3
                        (      93.778 eV)              -0.71      1 F:y             4
    43      43      1.000      -0.242 au  H             0.71      1 S               5
                        (      -6.582 eV)              -0.71      1 S               6
    44      44       --         0.113 au  H             0.71      2 S               5
                        (       3.073 eV)              -0.71      2 S               6
    45      45       --         1.599 au  H             0.71      3 S               5
                        (      43.507 eV)              -0.71      3 S               6
    46      46       --         0.445 au  H             0.71      1 P:x             5
                        (      12.103 eV)              -0.71      1 P:x             6
    47      47       --         0.445 au  H             0.71      1 P:y             5
                        (      12.103 eV)              -0.71      1 P:y             6
    48      48       --         0.445 au  H             0.71      1 P:z             5
                        (      12.103 eV)               0.71      1 P:z             6
    49      49       --         2.628 au  H             0.71      1 D:z2            5
                        (      71.513 eV)              -0.71      1 D:z2            6
    50      50       --         2.628 au  H             0.71      1 D:x2-y2         5
                        (      71.513 eV)              -0.71      1 D:x2-y2         6
    51      51       --         2.628 au  H             0.71      1 D:xy            5
                        (      71.513 eV)              -0.71      1 D:xy            6
    52      52       --         2.628 au  H             0.71      1 D:xz            5
                        (      71.513 eV)               0.71      1 D:xz            6
    53      53       --         2.628 au  H             0.71      1 D:yz            5
                        (      71.513 eV)               0.71      1 D:yz            6
    54      54       --         0.445 au  H             1.00      1 P:z             7
                        (      12.103 eV)
    55      55       --         2.628 au  H             1.00      1 D:xz            7
                        (      71.513 eV)
    56      56       --         2.628 au  H             1.00      1 D:yz            7
                        (      71.513 eV)



 ================================
 (Slater-type)  F U N C T I O N S  ***  (Basis and Fit)  ***
 ================================
  

 Atom Type    1  (C)
 ==============

 Valence Basis Sets:  10
 -----------------------
   1 S    7.680000
   1 S    5.000000
   2 S    1.280000
   2 S    2.100000
   2 S    4.600000
   2 P    0.820000
   2 P    1.480000
   2 P    2.940000
   3 D    2.200000
   4 F    3.300000

 Charge Fitting Sets (for the computation of the Coulomb Potential):  22
 -----------------------------------------------------------------------
   1 S   15.360000
   2 S   17.530000
   2 S   12.070000
   2 S    8.310000
   2 S    5.730000
   3 S    5.780000
   3 S    4.220000
   3 S    3.080000
   3 S    2.250000
   3 S    1.640000
   2 P    9.880000
   2 P    5.800000
   3 P    5.050000
   3 P    3.230000
   3 P    2.060000
   3 D    7.200000
   3 D    4.400000
   3 D    2.690000
   3 D    1.640000
   4 F    5.400000
   4 F    3.550000
   5 G    4.500000

 Atom Type    2  (N)
 ==============

 Valence Basis Sets:  10
 -----------------------
   1 S    8.740000
   1 S    5.900000
   2 S    5.150000
   2 S    2.500000
   2 S    1.500000
   2 P    3.680000
   2 P    1.880000
   2 P    1.000000
   3 D    2.200000
   4 F    3.300000

 Charge Fitting Sets (for the computation of the Coulomb Potential):  22
 -----------------------------------------------------------------------
   1 S   17.480000
   2 S   20.150000
   2 S   13.990000
   2 S    9.710000
   2 S    6.740000
   3 S    6.860000
   3 S    5.040000
   3 S    3.700000
   3 S    2.720000
   3 S    2.000000
   2 P   11.320000
   2 P    6.730000
   3 P    5.920000
   3 P    3.820000
   3 P    2.460000
   3 D    8.100000
   3 D    5.080000
   3 D    3.190000
   3 D    2.000000
   4 F    5.800000
   4 F    3.600000
   5 G    4.500000

 Atom Type    3  (O)
 ==============

 Valence Basis Sets:  10
 -----------------------
   1 S    9.800000
   1 S    6.800000
   2 S    7.580000
   2 S    2.880000
   2 S    1.720000
   2 P    4.080000
   2 P    2.080000
   2 P    1.120000
   3 D    2.000000
   4 F    3.000000

 Charge Fitting Sets (for the computation of the Coulomb Potential):  22
 -----------------------------------------------------------------------
   1 S   19.600000
   2 S   22.600000
   2 S   15.680000
   2 S   10.890000
   2 S    7.560000
   3 S    7.690000
   3 S    5.650000
   3 S    4.150000
   3 S    3.050000
   3 S    2.240000
   2 P   12.860000
   2 P    7.680000
   3 P    6.780000
   3 P    4.390000
   3 P    2.840000
   3 D    8.800000
   3 D    5.580000
   3 D    3.530000
   3 D    2.240000
   4 F    6.200000
   4 F    3.700000
   5 G    4.500000

 Atom Type    4  (H)
 ==============

 Valence Basis Sets:   5
 -----------------------
   1 S    0.690000
   1 S    0.920000
   1 S    1.580000
   2 P    1.250000
   3 D    2.500000

 Charge Fitting Sets (for the computation of the Coulomb Potential):  11
 -----------------------------------------------------------------------
   1 S    3.160000
   1 S    2.090000
   1 S    1.380000
   2 S    1.500000
   2 P    4.000000
   2 P    2.650000
   2 P    1.750000
   3 D    4.000000
   3 D    2.500000
   4 F    3.000000
   5 G    4.000000


 BAS: List of all Elementary Cartesian Basis Functions
 =====================================================

 The numbering in the list below (to the right of the function characteristics) is referred
 to in print-outs of MO eigenvectors and Mulliken populations in the BAS representation
 (as contrasted to the SFO representation).

 Notes:
 1. The functions are characterized by a polynomial prefactor (powers of x,y,z and r) and
    an exponential decay factor alpha.
 2. Since the basis sets are specific for an atom TYPE, the individual functions occur on
    all atoms of that type.
 3. The word 'Core' in the left margin signals that it is a Core Function (CF) : not a
    degree of freedom in the valence set, but only used to ensure orthogonalization of
    the other valence basis functions on the frozen Core Orbitals.


 (power of) X  Y  Z  R     Alpha  on Atom
            ==========     =====     ==========

 C                                    1
                                  ---------------------------------------------------------------------------
            0  0  0  0     7.680      1
            0  0  0  0     5.000      2
            0  0  0  1     1.280      3
            0  0  0  1     2.100      4
            0  0  0  1     4.600      5
            1  0  0  0     0.820      6
            0  1  0  0     0.820      7
            0  0  1  0     0.820      8
            1  0  0  0     1.480      9
            0  1  0  0     1.480     10
            0  0  1  0     1.480     11
            1  0  0  0     2.940     12
            0  1  0  0     2.940     13
            0  0  1  0     2.940     14
            2  0  0  0     2.200     15
            1  1  0  0     2.200     16
            1  0  1  0     2.200     17
            0  2  0  0     2.200     18
            0  1  1  0     2.200     19
            0  0  2  0     2.200     20
            3  0  0  0     3.300     21
            2  1  0  0     3.300     22
            2  0  1  0     3.300     23
            1  2  0  0     3.300     24
            1  1  1  0     3.300     25
            1  0  2  0     3.300     26
            0  3  0  0     3.300     27
            0  2  1  0     3.300     28
            0  1  2  0     3.300     29
            0  0  3  0     3.300     30

 N                                    2
                                  ---------------------------------------------------------------------------
            0  0  0  0     8.740     31
            0  0  0  0     5.900     32
            0  0  0  1     5.150     33
            0  0  0  1     2.500     34
            0  0  0  1     1.500     35
            1  0  0  0     3.680     36
            0  1  0  0     3.680     37
            0  0  1  0     3.680     38
            1  0  0  0     1.880     39
            0  1  0  0     1.880     40
            0  0  1  0     1.880     41
            1  0  0  0     1.000     42
            0  1  0  0     1.000     43
            0  0  1  0     1.000     44
            2  0  0  0     2.200     45
            1  1  0  0     2.200     46
            1  0  1  0     2.200     47
            0  2  0  0     2.200     48
            0  1  1  0     2.200     49
            0  0  2  0     2.200     50
            3  0  0  0     3.300     51
            2  1  0  0     3.300     52
            2  0  1  0     3.300     53
            1  2  0  0     3.300     54
            1  1  1  0     3.300     55
            1  0  2  0     3.300     56
            0  3  0  0     3.300     57
            0  2  1  0     3.300     58
            0  1  2  0     3.300     59
            0  0  3  0     3.300     60

 O                                    3    4
                                  ---------------------------------------------------------------------------
            0  0  0  0     9.800     61   91
            0  0  0  0     6.800     62   92
            0  0  0  1     7.580     63   93
            0  0  0  1     2.880     64   94
            0  0  0  1     1.720     65   95
            1  0  0  0     4.080     66   96
            0  1  0  0     4.080     67   97
            0  0  1  0     4.080     68   98
            1  0  0  0     2.080     69   99
            0  1  0  0     2.080     70  100
            0  0  1  0     2.080     71  101
            1  0  0  0     1.120     72  102
            0  1  0  0     1.120     73  103
            0  0  1  0     1.120     74  104
            2  0  0  0     2.000     75  105
            1  1  0  0     2.000     76  106
            1  0  1  0     2.000     77  107
            0  2  0  0     2.000     78  108
            0  1  1  0     2.000     79  109
            0  0  2  0     2.000     80  110
            3  0  0  0     3.000     81  111
            2  1  0  0     3.000     82  112
            2  0  1  0     3.000     83  113
            1  2  0  0     3.000     84  114
            1  1  1  0     3.000     85  115
            1  0  2  0     3.000     86  116
            0  3  0  0     3.000     87  117
            0  2  1  0     3.000     88  118
            0  1  2  0     3.000     89  119
            0  0  3  0     3.000     90  120

 H                                    5    6    7
                                  ---------------------------------------------------------------------------
            0  0  0  0     0.690    121  133  145
            0  0  0  0     0.920    122  134  146
            0  0  0  0     1.580    123  135  147
            1  0  0  0     1.250    124  136  148
            0  1  0  0     1.250    125  137  149
            0  0  1  0     1.250    126  138  150
            2  0  0  0     2.500    127  139  151
            1  1  0  0     2.500    128  140  152
            1  0  1  0     2.500    129  141  153
            0  2  0  0     2.500    130  142  154
            0  1  1  0     2.500    131  143  155
            0  0  2  0     2.500    132  144  156

 Total number of charge fitting functions (nprimf)       486
 Total number of Cartesian basis functions (naos)        156
 Total number of Cartesian core functions  (ncos)          0

1
 ***************************************************************************************************



                                              ***********************
                                              *  T E C H N I C A L  *
                                              ***********************
  



 =============================================================
 P A R A L L E L I Z A T I O N  and  V E C T O R I Z A T I O N
 =============================================================
  
 Nr of parallel processes:                                4
 Maximum vector length in NumInt loops:                 128



 =====================
 S C F   U P D A T E S
 =====================
  
 Max. nr. of cycles:                               300
 Convergence criterion:                              0.0000010000
   secondary criterion:                              0.0010000000

 Mix parameter (when DIIS does not apply):           0.2000000000
 Mixed ADIIS+SDIIS will be used                  
    Max number of expansion vectors:                10
    Pure ADIIS when Max([F,P]) is above              0.1000000000
    Pure SDIIS when Max([F,P]) is below              0.0010000000
 Automatic ElectronSmearing (in case of problematic SCF convergence) disabled



 =================
 P R E C I S I O N  ***  (General: NumInt, NeglectFunctionTails, ...)  ***
 =================
  

 NumInt:           Target precision:                 6.0000000000
 -------           Initial precision:                6.0000000000
                   Min. precision (optimization):    6.0000000000

 Neglect Functions:          Basis functions:        0.1000000000E-07
 ------------------          Fit functions:          0.1000000000E-07



 ===========================
 L I N E A R   S C A L I N G
 ===========================
  

 Cut-off radii density fit:                        0.1000000000E-09
 Overlap cut-off criterion AO matrix elements:     0.1000000000E-07
 Cut-offs for Coulomb potential and fitted density:0.1000000000E-09
 Cut-off criterion for Coulomb multipole terms:    0.1000000000E-09
 Progressive Convergence parameter:                 0.000000000    

 Number of elements of the density matrix on this node (used, total):      3270     12246



 ===========================================
 Numerical Integration : Fuzzy Cells (Becke)
 ===========================================
  
 Becke grid quality: GOOD           
  
 Lebedev angular grid order:             min:  11 max:  31
 Nr. of radial points:                   min:  54 max:  61

 Total nr. of points:      89392
 Nr. of blocks:              700
 Block length:               128
 Nr. of dummy points:        208


 Test of Precision of the Numerical Integration Grid
 ===================================================

[...]
 *                                                                             *
 *  --------------------------------                                           *
 *   Amsterdam Modeling Suite (AMS)              2020.202                      *
 *  --------------------------------                                           *
 *                                               r90167 2020-12-05             *
 *                                                                             *
 *                                                                             *
 *                              =================                              *
 *                              |               |                              *
 *                              |     N M R     |                              *
 *                              |               |                              *
 *                              =================                              *
 *                                                                             *
 *                                                                             *
 *   Online information and documentation:  https://www.scm.com/support/       *
 *   E-mail:  support@scm.com   info@scm.com                                   *
 *                                                                             *
 *   Scientific publications using AMS results must be properly referenced     *
 *   See the User Manuals (or the web site) for recommended citations          *
 *   The terms and conditions of the End User License Agreement apply to       *
 *   the use of AMS, https://www.scm.com/license-terms/                        *
 *                                                                             *
 **********************  x86_64_linux_intel / intelmpi  ************************
 
 Licensed to: Dr. Miroslav Ilias / Matej Bel University, Department Chemistry, Fac. Natural Sciences / Banska Bystrica / SLOVAKIA
 SCM User ID: u17848
  
 NMR 2020.202  RunTime: Feb15-2021 19:51:32  Nodes: 1  Procs: 4

 Temporary files are created in /tmp/kid_0.799483468 (0xEF53)


 Communication costs MPI_COMM_WORLD:      0.274 usec per message,   0.0034 usec per 8-byte item
 Communication costs for intra-node:      0.256 usec per message,   0.0034 usec per 8-byte item




 ======================
 RI Hartree-Fock Scheme
 ======================
  
 Fit Set Quality     : GOOD
 Integration Quality : GOOD
 Threshold Quality   : GOOD
 Response Quality    : DEFAULT
 Is Range Separated  :  F
 
 RIHartreeFock Dependency: number of modified vectors:           0
                    
                      **********************************    
                      ||******************************||    
                      ||                              ||    
                      ||  ##   ##  ###  ###  ######   ||    
                      ||  ###  ##  ########  ##   ##  ||    
                      ||  #### ##  ## ## ##  ######   ||    
                      ||  ## ####  ##    ##  ## ##    ||    
                      ||  ##  ###  ##    ##  ##  ##   ||    
                      ||  ##   ##  ##    ##  ##   ##  ||    
                      ||                              ||    
                      | ****************************** |    
                      **********************************    
                    
                            Written for ADF by              
                    
                    Stephen K. Wolff & Georg Schreckenbach  
                    
                      The research group of Tom Ziegler     
                            University of Calgary           
                               Alberta, Canada              
                    
                      Speedups, NBO analysis, g-tensors,    
                       full ZORA SO, and other goodies by   
                         Jochen Autschbach, SUNY Buffalo
                    
 =============================
 NMR Chemical shift References
 =============================
  
 Lead:
 G. Schreckenbach, T. Ziegler, J. Phys. Chem. 99 (1995) 606
  
 Speed-ups:
 J. Autschbach, E. Zurek, J. Phys. Chem. A 107 (2003), 4967
  
 Hybrids:
 M. Krykunov, T. Ziegler, E. van Lenthe, Int. J. of Quantum Chem. 109, 1676 (2009)
  
 Spin-orbit coupling:
 S.K. Wolff, T. Ziegler, E. van Lenthe, E.J. Baerends, J. Chem. Phys. 110, 7689 (1999)
 J. Autschbach, Mol. Phys. 111 (2013), 2544
  
 Paramagnetic:
 J. Autschbach, S. Patchkovskii, B. Pritchard, J. Chem. Theory Comput. 7, 2175 (2011)
  
 NBO analysis:
 J. Autschbach, J. Chem. Phys. 128 (2008), 164112
 J. Autschbach, S. Zheng, Magn. Reson. Chem. 46 (2008), S48
  
 Suggested:
 G. Schreckenbach, T. Ziegler, Int. J. Quantum Chem. 60, 753 (1996)
 G. Schreckenbach, T. Ziegler, Int. J. Quantum Chem. 61 (1997) 899
 S.K. Wolff, T. Ziegler, J. Chem. Phys. 109 (1998) 895
  
 =======================
 ESR g-tensor References
 =======================
  
 Lead:
 J. Autschbach, B. Pritchard, Theor. Chem. Acc. 129 (2011), 453
  
 Suggested:
 G. Schreckenbach, T. Ziegler, J. Phys. Chem. A 101, 3388 (1997)
 
################################################################################
 
 
################################################################################
 
 
              <><><><><><><><><><><><><><><><><><><><><><><><><>
 
                 GENERAL ADF INFORMATION:
                 ------------------------
 
                 TITLE:    *** adf ***                                  
 JOB ID:      498366224
                 NONLXC:                                                
                 SYMMETRY: C(S)                                         
                  
                 IOPREL:   0
                 ------>  non-rel. (Re MOs)
 
              <><><><><><><><><><><><><><><><><><><><><><><><><>
 
              ==================================================
 
                 NUCLEAR COORDINATES (ANGSTROMS):
                 --------------------------------
 
                 C  (  1):       0.6557      0.0093     -0.0000
                 N  (  2):      -0.8208      0.0167     -0.0000
                 O  (  3):      -1.3901      0.0052      1.0722
                 O  (  4):      -1.3901      0.0052     -1.0722
                 H  (  5):       0.9961      0.5007      0.9039
                 H  (  6):       0.9961      0.5007     -0.9039
                 H  (  7):       0.9532     -1.0377     -0.0000
 
              ==================================================
 
              <><><><><><><><><><><><><><><><><><><><><><><><><>
 
                 NUMBERS:
                 --------
 
                 number of electrons:     32.00
 
                 ---   AOs   ---          ---   MOs   ---
                 ncor =     0             nocc =    16
                 nval =   156             nvir =   121
                 nbas =   156             nmo  =   137
                 naos =   156             nsot =   137
              ==================================================
                  
                 --------------------------
                     ATOM TYPE: C                        
                 --------------------------
                 === BASIS
                   1S    7.68     VALENCE
                   1S    5.00     VALENCE
                   2S    1.28     VALENCE
                   2S    2.10     VALENCE
                   2S    4.60     VALENCE
                   2P    0.82     VALENCE
                   2P    1.48     VALENCE
                   2P    2.94     VALENCE
                   3D    2.20     VALENCE
                   4F    3.30     VALENCE
                  
                 --------------------------
                     ATOM TYPE: N                        
                 --------------------------
                 === BASIS
                   1S    8.74     VALENCE
                   1S    5.90     VALENCE
                   2S    5.15     VALENCE
                   2S    2.50     VALENCE
                   2S    1.50     VALENCE
                   2P    3.68     VALENCE
                   2P    1.88     VALENCE
                   2P    1.00     VALENCE
                   3D    2.20     VALENCE
                   4F    3.30     VALENCE
                  
                 --------------------------
                     ATOM TYPE: O                        
                 --------------------------
                 === BASIS
                   1S    9.80     VALENCE
                   1S    6.80     VALENCE
                   2S    7.58     VALENCE
                   2S    2.88     VALENCE
                   2S    1.72     VALENCE
                   2P    4.08     VALENCE
                   2P    2.08     VALENCE
                   2P    1.12     VALENCE
                   3D    2.00     VALENCE
                   4F    3.00     VALENCE
                  
                 --------------------------
                     ATOM TYPE: H                        
                 --------------------------
                 === BASIS
                   1S    0.69     VALENCE
                   1S    0.92     VALENCE
                   1S    1.58     VALENCE
                   2P    1.25     VALENCE
                   3D    2.50     VALENCE
                  
              ==================================================
              <><><><><><><><><><><><><><><><><><><><><><><><><>
 
                 TENSOR INFORMATION:
                 -------------------
 
                              CALC                   U1K
 
                 paramagnetic  = T     mass-velocity = F
                 diamagnetic   = T     Darwin        = F
                 Fermi-cont.   = F     Zeeman        = F
                 ZORA SO       = F     ZORA SO       = F
                 ZORA SCALE    = F     ZORA SO FULL  = F
                 ZORA SO 1C    = F     E IN U1 SCL   = F
 
              <><><><><><><><><><><><><><><><><><><><><><><><><>
 
              <><><><><><><><><><><><><><><><><><><><><><><><><>
 
                 OUTPUT SWITCHES:
                 ----------------
 
                           ISO = T                F1 = F
                          TENS = T                S1 = F
                           EIG = F                U1 = F
                           AOP = F                B1 = F
                           AOD = F                F  = F
                           AOF = F                 S = F
                          INFO = F              REFS = F
 
              <><><><><><><><><><><><><><><><><><><><><><><><><>
 
              --------------------------------------------------
 
                 CALCULATE THE POTENTIAL? F
                  
                 ---> Potential is already on TAPE10.
                      It will not be re-calculated.
 
              --------------------------------------------------



 ===========================
 L I N E A R   S C A L I N G
 ===========================
  

 Overlap cut-off criterion AO matrix elements:     0.1000000000E-07
 ========================
 STARTING A NEW SCF. Step            1
 CRIT   1.00000000000000     
 CRIT   1.00000000000000     
 CRIT   1.00000000000000     
 ========================
 STARTING A NEW SCF. Step            2
 CRIT   4.69220020890714     
 CRIT   2.60862153502195     
 CRIT   6.29902658927459     
 ========================
 STARTING A NEW SCF. Step            3
 CRIT  0.736092494421382     
 CRIT  0.304532055866792     
 CRIT  0.505879536785454     
 ========================
 STARTING A NEW SCF. Step            4
 CRIT  7.562445125837168E-002
 CRIT  2.867536009453956E-002
 CRIT  3.739273884533452E-002
 ========================
 STARTING A NEW SCF. Step            5
 CRIT  3.363493327667712E-003
 CRIT  5.782324939050058E-003
 CRIT  2.604185077440138E-003
 ========================
 STARTING A NEW SCF. Step            6
 CRIT  2.018053665004548E-004
 CRIT  5.788190230528228E-004
 CRIT  1.317010698129705E-004
 ========================
 STARTING A NEW SCF. Step            7
 CRIT  1.412394590840313E-005
 CRIT  3.918994330776955E-005
 CRIT  7.367867064805882E-006
 ========================
 STARTING A NEW SCF. Step            8
 CRIT  1.465514828246403E-006
 CRIT  2.441703625248299E-006
 CRIT  4.351567254476567E-007
 ========================
 STARTING A NEW SCF. Step            9
 CRIT  1.164913099232964E-007
 CRIT  1.358653280546183E-007
################################################################################
********************************************************************************
****  N U C L E U S : N(2)
 
 ADF-GUI atom: N(2)
 Internal NMR numbering of atoms: N(2)
 
 
================================================================================
 
 
===  PARAMAGNETIC NMR SHIELDING TENSORS (ppm)
 
    ===     paramagnetic b^(1) tensor       ===     paramagnetic u^(1) tensor
    -----------------------------------     -----------------------------------
           0.000     0.000     0.000            -643.179    -3.606     0.003
           0.000     0.000     0.000              -3.606  -322.848     0.010
           0.000     0.000     0.000               0.003     0.010  -651.091
    -----------------------------------     -----------------------------------
              isotropic =      0.000                  isotropic =   -539.039

    ===     paramagnetic s^(1) tensor       ===     paramagnetic gauge tensor
    -----------------------------------     -----------------------------------
          56.681    -0.758     0.000              -0.404     0.102     0.000
          -0.758   119.474     0.000               0.102    -5.154    -0.000
           0.000     0.000    81.386               0.000    -0.000    -0.529
    -----------------------------------     -----------------------------------
              isotropic =     85.847                  isotropic =     -2.029

                        ***********************************
                        CARTESIAN AXIS REPRESENTATION

                        ==== total paramagnetic tensor
                        -----------------------------------
                            -586.902    -4.262     0.003
                              -4.262  -208.528     0.010
                               0.003     0.010  -570.234
                        -----------------------------------
                                  isotropic =   -455.221

                        ***********************************
                        -----------------------------------
                        PRINCIPAL AXIS REPRESENTATION

                        ==== Principal components:

                            -586.950  -570.234  -208.480
 
                        ==== Principal Axis System:

                               1.000     0.000     0.011
                               0.011    -0.000    -1.000
                              -0.000     1.000    -0.000
                        -----------------------------------
 
================================================================================
 
 
===  DIAMAGNETIC NMR SHIELDING TENSORS (ppm)
 
    ===       diamagnetic core tensor       ===    diamagnetic valence tensor
    -----------------------------------     -----------------------------------
           0.000     0.000     0.000             304.255     0.093    -0.000
           0.000     0.000     0.000               0.093   270.349     0.000
           0.000     0.000     0.000              -0.000     0.000   317.403
    -----------------------------------     -----------------------------------
              isotropic =      0.000                  isotropic =    297.336

                        ***********************************
                        CARTESIAN AXIS REPRESENTATION

                        ==== total diamagnetic tensor
                        -----------------------------------
                             304.255     0.093    -0.000
                               0.093   270.349     0.000
                              -0.000     0.000   317.403
                        -----------------------------------
                                  isotropic =    297.336

                        ***********************************
                        -----------------------------------
                        PRINCIPAL AXIS REPRESENTATION

                        ==== Principal components:

                             270.349   304.255   317.403
 
                        ==== Principal Axis System:

                              -0.003     1.000    -0.000
                               1.000     0.003     0.000
                              -0.000     0.000     1.000
                        -----------------------------------
 
================================================================================
 
 
===  TOTAL NMR SHIELDING TENSOR (ppm)
 
                        ***********************************
                        CARTESIAN AXIS REPRESENTATION

                        ==== total shielding tensor
                        -----------------------------------
                            -282.647    -4.169     0.003
                              -4.169    61.821     0.010
                               0.003     0.010  -252.831
                        -----------------------------------
                                  isotropic =   -157.886

                        ***********************************
                        -----------------------------------
                        PRINCIPAL AXIS REPRESENTATION

                        ==== Principal components:

                            -282.697  -252.831    61.872
 
                        ==== Principal Axis System:

                               1.000     0.000     0.012
                               0.012    -0.000    -1.000
                              -0.000     1.000    -0.000
                        -----------------------------------
 *******************************************************************************

                             N M R   E X I T
 NORMAL TERMINATION



 =================
 Timing Statistics
 =================
  
 Total Used :                     CPU=       17.35      System=        0.51     Elapsed=       18.37

 Calls  Section                     ( Mean, Percentage )
 ---------------------------------------------------------------------------------------------------
     3  ><      ................      0.00    0.07             0.00    0.83             0.01    0.09
     1  INIT    ................      0.38    2.20             0.01    2.14             0.40    2.15
     1  RDEIGX  ................      9.86   56.79             0.16   31.56            10.33   56.22
     1  AOF1K   ................      0.44    2.51             0.00    0.00             0.47    2.53
     1  AOPKK   ................      6.05   34.88             0.32   63.15             6.54   35.59
     1  XSIGP   ................      0.00    0.00             0.00    0.00             0.00    0.00
     1  AODKKK  ................      0.61    3.52             0.01    1.58             0.62    3.38
     1  XDV     ................      0.00    0.00             0.00    0.00             0.00    0.00
     1  XSIGD   ................      0.00    0.00             0.00    0.00             0.00    0.00
     1  EXIT PROCEDURE .........      0.00    0.00             0.00    0.72             0.01    0.03


 Currently Open Files (EXIT00)
 ====================

 Unit    Access Format  Status   Type       Ident (file)
 -------------------------------------------------------
   3      SEQ    FORM   TRANSP  NORMAL      LOGFILE
                                          ( /home/milias/work/projects/open-collection/theoretical_chemistry/projects/nmr_diplomovky/reference_compounds/nitromethane/ams/pbe0_tz2p_good/nitromethane.geopt_freq_nmr_shield_pbe0_tz2p_good_cosmo-h2o.logfile )
