 *******************************************************************************
 **                                                                           **
 **                              MOPAC v22.1.1                                **
 **                                                                           **
 *******************************************************************************
 **          Digital Object Identifier (DOI): 10.5281/zenodo.6511958          **
 **    Visit the DOI location for information on how to cite this program.    **
 *******************************************************************************

                              PM7 CALCULATION RESULTS

 *******************************************************************************
 *  CALCULATION DONE:                                Tue Jun  4 17:08:50 2024  *
 *  PM7        - The PM7 Hamiltonian to be used
 *  EXCITED    - FIRST EXCITED STATE IS TO BE OPTIMIZED
 *
 *
 *
 *                 CHARGE ON SYSTEM = 0
 *
 *
 *
 *  PRECISE    - TIGHTER CRITERIA TO BE USED
 *  T=         - A TIME OF 172800.0 SECONDS REQUESTED
 *  DUMP=N     - RESTART FILE WRITTEN EVERY 7200.0 SECONDS REQUESTED
 *  AUX        - OUTPUT AUXILIARY INFORMATION
 *  LARGE      - EXPANDED OUTPUT TO BE PRINTED
 *******************************************************************************
 AUX LARGE CHARGE=0 EXCITED PRECISE PM7
 PCDM, first excited state

   ATOM   CHEMICAL          X               Y               Z
  NUMBER   SYMBOL      (ANGSTROMS)     (ANGSTROMS)     (ANGSTROMS)
 
     1       N         14.74894000  *  -7.94501000  *  -1.57091000  *
     2       C         14.06717000  *  -9.12741000  *  -1.41811000  *
     3       C         14.07351000  *  -6.75757000  *  -1.42940000  *
     4       C         12.70045000  *  -9.13908000  *  -1.12841000  *
     5       C         12.70688000  *  -6.73582000  *  -1.13988000  *
     6       C         12.01825000  *  -7.93493000  *  -0.99002000  *
     7       C         16.20085000  *  -7.95034000  *  -1.87557000  *
     8       C         16.96017000  *  -9.23883000  *  -2.00281000  *
     9       C         16.96719000  *  -6.66720000  *  -2.01415000  *
    10       O         16.69426000  * -10.01099000  *  -2.91278000  *
    11       O         16.70605000  *  -5.90198000  *  -2.93133000  *
    12       O         17.96573000  *  -6.39989000  *  -1.13357000  *
    13       O         17.95817000  *  -9.50330000  *  -1.12076000  *
    14       C         18.78691000  *  -5.28774000  *  -1.15638000  *
    15       C         20.23498000  *  -5.73214000  *  -1.29854000  *
    16       C         18.77293000  * -10.62033000  *  -1.13373000  *
    17       C         20.22324000  * -10.18578000  *  -1.28338000  *
    18       H         14.56378000  * -10.08262000  *  -1.51431000  *
    19       H         14.57522000  *  -5.80599000  *  -1.53472000  *
    20       H         12.17549000  * -10.07844000  *  -1.01123000  *
    21       H         12.18696000  *  -5.79259000  *  -1.03170000  *
    22       H         10.95951000  *  -7.93102000  *  -0.76521000  *
    23       H         18.53708000  *  -4.59881000  *  -1.99277000  *
    24       H         18.66595000  *  -4.73301000  *  -0.20204000  *
    25       H         20.51435000  *  -6.39754000  *  -0.45402000  *
    26       H         20.37097000  *  -6.28197000  *  -2.25411000  *
    27       H         20.90248000  *  -4.84476000  *  -1.29452000  *
    28       H         18.51748000  * -11.31637000  *  -1.96250000  *
    29       H         18.65067000  * -11.16455000  *  -0.17351000  *
    30       H         20.88563000  * -11.07690000  *  -1.27155000  *
    31       H         20.36037000  *  -9.64669000  *  -2.24490000  *
    32       H         20.50820000  *  -9.51327000  *  -0.44640000  *
 


          CARTESIAN COORDINATES 

    NO.       ATOM           X           Y           Z

     1         N         14.7489     -7.9450     -1.5709
     2         C         14.0672     -9.1274     -1.4181
     3         C         14.0735     -6.7576     -1.4294
     4         C         12.7005     -9.1391     -1.1284
     5         C         12.7069     -6.7358     -1.1399
     6         C         12.0183     -7.9349     -0.9900
     7         C         16.2008     -7.9503     -1.8756
     8         C         16.9602     -9.2388     -2.0028
     9         C         16.9672     -6.6672     -2.0141
    10         O         16.6943    -10.0110     -2.9128
    11         O         16.7061     -5.9020     -2.9313
    12         O         17.9657     -6.3999     -1.1336
    13         O         17.9582     -9.5033     -1.1208
    14         C         18.7869     -5.2877     -1.1564
    15         C         20.2350     -5.7321     -1.2985
    16         C         18.7729    -10.6203     -1.1337
    17         C         20.2232    -10.1858     -1.2834
    18         H         14.5638    -10.0826     -1.5143
    19         H         14.5752     -5.8060     -1.5347
    20         H         12.1755    -10.0784     -1.0112
    21         H         12.1870     -5.7926     -1.0317
    22         H         10.9595     -7.9310     -0.7652
    23         H         18.5371     -4.5988     -1.9928
    24         H         18.6659     -4.7330     -0.2020
    25         H         20.5144     -6.3975     -0.4540
    26         H         20.3710     -6.2820     -2.2541
    27         H         20.9025     -4.8448     -1.2945
    28         H         18.5175    -11.3164     -1.9625
    29         H         18.6507    -11.1646     -0.1735
    30         H         20.8856    -11.0769     -1.2715
    31         H         20.3604     -9.6467     -2.2449
    32         H         20.5082     -9.5133     -0.4464

 General Reference for PM7:
 "Optimization of Parameters for Semiempirical Methods VI: More Modifications to the 
 NDDO Approximations and Re-optimization of Parameters", J. J. P. Stewart, J. Mol. Mod., 1:32, 19 (2013)
 https://link.springer.com/article/10.1007/s00894-012-1667-x

           Empirical Formula: C12 H15 N O4  =    32 atoms



      MOLECULAR POINT GROUP   :   Cs  


 SYSTEM IS A BIRADICAL


 EXCITED STATE CALCULATION

      THERE ARE   45 DOUBLY FILLED LEVELS


      RHF CALCULATION, NO. OF DOUBLY OCCUPIED LEVELS = 45


                       NO. OF SINGLY OCCUPIED LEVELS =    2

          Geometry optimization using EF

          DIAGONAL MATRIX USED AS START HESSIAN

 CYCLE:     1 TIME:   0.398 TIME LEFT:  2.00D  GRAD.:   149.949 HEAT: -39.86614
 CYCLE:     2 TIME:   0.676 TIME LEFT:  2.00D  GRAD.:   113.937 HEAT: -46.16440
 CYCLE:     3 TIME:   0.695 TIME LEFT:  2.00D  GRAD.:   104.183 HEAT: -47.59423
 CYCLE:     4 TIME:   0.328 TIME LEFT:  2.00D  GRAD.:    56.009 HEAT: -50.90570
 CYCLE:     5 TIME:   0.340 TIME LEFT:  2.00D  GRAD.:    93.787 HEAT: -53.58424
 CYCLE:     6 TIME:   0.309 TIME LEFT:  2.00D  GRAD.:   109.629 HEAT: -54.21925
 CYCLE:     7 TIME:   0.629 TIME LEFT:  2.00D  GRAD.:   129.286 HEAT: -55.74891
 CYCLE:     8 TIME:   0.324 TIME LEFT:  2.00D  GRAD.:   103.726 HEAT: -56.74811
 CYCLE:     9 TIME:   0.332 TIME LEFT:  2.00D  GRAD.:    89.231 HEAT: -57.64712
 CYCLE:    10 TIME:   0.336 TIME LEFT:  2.00D  GRAD.:    85.466 HEAT: -58.66030
 CYCLE:    11 TIME:   0.309 TIME LEFT:  2.00D  GRAD.:    46.114 HEAT: -60.03627
 CYCLE:    12 TIME:   0.648 TIME LEFT:  2.00D  GRAD.:    30.636 HEAT: -60.66726
 CYCLE:    13 TIME:   0.324 TIME LEFT:  2.00D  GRAD.:    43.184 HEAT: -60.87277
 CYCLE:    14 TIME:   0.316 TIME LEFT:  2.00D  GRAD.:    31.598 HEAT: -61.42249
 CYCLE:    15 TIME:   0.312 TIME LEFT:  2.00D  GRAD.:    53.150 HEAT: -61.42269
 CYCLE:    16 TIME:   0.316 TIME LEFT:  2.00D  GRAD.:    23.791 HEAT: -62.23822
 CYCLE:    17 TIME:   0.930 TIME LEFT:  2.00D  GRAD.:    17.589 HEAT: -62.44694
 CYCLE:    18 TIME:   0.355 TIME LEFT:  2.00D  GRAD.:    20.152 HEAT: -62.58554
 CYCLE:    19 TIME:   0.316 TIME LEFT:  2.00D  GRAD.:    17.457 HEAT: -62.90692
 CYCLE:    20 TIME:   0.312 TIME LEFT:  2.00D  GRAD.:    28.411 HEAT: -63.18046
 CYCLE:    21 TIME:   0.301 TIME LEFT:  2.00D  GRAD.:    19.392 HEAT: -63.82923
 CYCLE:    22 TIME:   0.324 TIME LEFT:  2.00D  GRAD.:    24.571 HEAT: -64.24937
 CYCLE:    23 TIME:   0.297 TIME LEFT:  2.00D  GRAD.:    36.845 HEAT: -64.30281
 CYCLE:    24 TIME:   0.301 TIME LEFT:  2.00D  GRAD.:    23.594 HEAT: -64.82967
 CYCLE:    25 TIME:   0.301 TIME LEFT:  2.00D  GRAD.:    30.921 HEAT: -64.96722
 CYCLE:    26 TIME:   0.305 TIME LEFT:  2.00D  GRAD.:    22.716 HEAT: -65.32224
 CYCLE:    27 TIME:   0.305 TIME LEFT:  2.00D  GRAD.:    31.671 HEAT: -65.42591
 CYCLE:    28 TIME:   0.297 TIME LEFT:  2.00D  GRAD.:    19.318 HEAT: -65.73956
 CYCLE:    29 TIME:   0.301 TIME LEFT:  2.00D  GRAD.:    23.524 HEAT: -65.83009
 CYCLE:    30 TIME:   0.301 TIME LEFT:  2.00D  GRAD.:    19.735 HEAT: -66.11646
 CYCLE:    31 TIME:   0.289 TIME LEFT:  2.00D  GRAD.:    31.155 HEAT: -66.24380
 CYCLE:    32 TIME:   0.289 TIME LEFT:  2.00D  GRAD.:    19.203 HEAT: -66.67093
 CYCLE:    33 TIME:   0.293 TIME LEFT:  2.00D  GRAD.:    30.444 HEAT: -66.91517
 CYCLE:    34 TIME:   0.297 TIME LEFT:  2.00D  GRAD.:    21.288 HEAT: -67.23275
 CYCLE:    35 TIME:   0.410 TIME LEFT:  2.00D  GRAD.:    26.006 HEAT: -67.28716
 CYCLE:    36 TIME:   0.469 TIME LEFT:  2.00D  GRAD.:    29.288 HEAT: -67.47181
 CYCLE:    37 TIME:   0.469 TIME LEFT:  2.00D  GRAD.:    21.936 HEAT: -67.70432
 CYCLE:    38 TIME:   0.469 TIME LEFT:  2.00D  GRAD.:    24.967 HEAT: -67.94877
 CYCLE:    39 TIME:   0.473 TIME LEFT:  2.00D  GRAD.:    20.129 HEAT: -68.29660
 CYCLE:    40 TIME:   0.465 TIME LEFT:  2.00D  GRAD.:    17.779 HEAT: -68.66534
 CYCLE:    41 TIME:   0.469 TIME LEFT:  2.00D  GRAD.:    11.628 HEAT: -68.84844
 CYCLE:    42 TIME:   0.465 TIME LEFT:  2.00D  GRAD.:    13.684 HEAT: -68.86809
 CYCLE:    43 TIME:   0.469 TIME LEFT:  2.00D  GRAD.:     9.026 HEAT: -68.93443
 CYCLE:    44 TIME:   0.469 TIME LEFT:  2.00D  GRAD.:    10.535 HEAT: -68.96127
 CYCLE:    45 TIME:   0.465 TIME LEFT:  2.00D  GRAD.:     7.083 HEAT: -69.00588
 CYCLE:    46 TIME:   0.469 TIME LEFT:  2.00D  GRAD.:     9.254 HEAT: -69.04193
 CYCLE:    47 TIME:   0.461 TIME LEFT:  2.00D  GRAD.:     5.576 HEAT: -69.07262
 CYCLE:    48 TIME:   0.465 TIME LEFT:  2.00D  GRAD.:     5.408 HEAT: -69.08578
 CYCLE:    49 TIME:   0.465 TIME LEFT:  2.00D  GRAD.:     3.678 HEAT: -69.09887
 CYCLE:    50 TIME:   0.465 TIME LEFT:  2.00D  GRAD.:     2.950 HEAT: -69.11079
 CYCLE:    51 TIME:   0.469 TIME LEFT:  2.00D  GRAD.:     4.089 HEAT: -69.12195
 CYCLE:    52 TIME:   0.465 TIME LEFT:  2.00D  GRAD.:     3.133 HEAT: -69.13413
 CYCLE:    53 TIME:   0.465 TIME LEFT:  2.00D  GRAD.:     3.008 HEAT: -69.14530
 CYCLE:    54 TIME:   0.465 TIME LEFT:  2.00D  GRAD.:     5.346 HEAT: -69.16266
 CYCLE:    55 TIME:   0.469 TIME LEFT:  2.00D  GRAD.:     5.231 HEAT: -69.18369
 CYCLE:    56 TIME:   0.465 TIME LEFT:  2.00D  GRAD.:     4.143 HEAT: -69.21137
 CYCLE:    57 TIME:   0.473 TIME LEFT:  2.00D  GRAD.:     5.294 HEAT: -69.26225
 CYCLE:    58 TIME:   0.469 TIME LEFT:  2.00D  GRAD.:     5.454 HEAT: -69.29713
 CYCLE:    59 TIME:   0.465 TIME LEFT:  2.00D  GRAD.:     4.211 HEAT: -69.32955
 CYCLE:    60 TIME:   0.465 TIME LEFT:  2.00D  GRAD.:     3.612 HEAT: -69.35344
 CYCLE:    61 TIME:   0.465 TIME LEFT:  2.00D  GRAD.:     3.338 HEAT: -69.36817
 CYCLE:    62 TIME:   0.465 TIME LEFT:  2.00D  GRAD.:     2.881 HEAT: -69.37797
 CYCLE:    63 TIME:   0.465 TIME LEFT:  2.00D  GRAD.:     2.349 HEAT: -69.38605
 CYCLE:    64 TIME:   0.465 TIME LEFT:  2.00D  GRAD.:     3.330 HEAT: -69.39562
 CYCLE:    65 TIME:   0.465 TIME LEFT:  2.00D  GRAD.:     2.852 HEAT: -69.40556
 CYCLE:    66 TIME:   0.465 TIME LEFT:  2.00D  GRAD.:     2.562 HEAT: -69.42335
 CYCLE:    67 TIME:   0.465 TIME LEFT:  2.00D  GRAD.:     3.329 HEAT: -69.43748
 CYCLE:    68 TIME:   0.480 TIME LEFT:  2.00D  GRAD.:     3.931 HEAT: -69.46110
 CYCLE:    69 TIME:   0.465 TIME LEFT:  2.00D  GRAD.:     3.379 HEAT: -69.47871
 CYCLE:    70 TIME:   0.465 TIME LEFT:  2.00D  GRAD.:     2.037 HEAT: -69.48808
 CYCLE:    71 TIME:   0.461 TIME LEFT:  2.00D  GRAD.:     1.643 HEAT: -69.49312
 CYCLE:    72 TIME:   0.461 TIME LEFT:  2.00D  GRAD.:     1.648 HEAT: -69.49707
 CYCLE:    73 TIME:   0.461 TIME LEFT:  2.00D  GRAD.:     1.438 HEAT: -69.50231
 CYCLE:    74 TIME:   0.461 TIME LEFT:  2.00D  GRAD.:     1.355 HEAT: -69.50703
 CYCLE:    75 TIME:   0.461 TIME LEFT:  2.00D  GRAD.:     1.438 HEAT: -69.51161
 CYCLE:    76 TIME:   0.461 TIME LEFT:  2.00D  GRAD.:     1.816 HEAT: -69.51629
 CYCLE:    77 TIME:   0.461 TIME LEFT:  2.00D  GRAD.:     1.653 HEAT: -69.52101
 CYCLE:    78 TIME:   0.465 TIME LEFT:  2.00D  GRAD.:     2.326 HEAT: -69.52596
 CYCLE:    79 TIME:   0.465 TIME LEFT:  2.00D  GRAD.:     2.234 HEAT: -69.53297
 CYCLE:    80 TIME:   0.461 TIME LEFT:  2.00D  GRAD.:     2.393 HEAT: -69.54205
 CYCLE:    81 TIME:   0.461 TIME LEFT:  2.00D  GRAD.:     2.288 HEAT: -69.55274
 CYCLE:    82 TIME:   0.461 TIME LEFT:  2.00D  GRAD.:     2.329 HEAT: -69.56389
 CYCLE:    83 TIME:   0.465 TIME LEFT:  2.00D  GRAD.:     2.032 HEAT: -69.57210
 CYCLE:    84 TIME:   0.461 TIME LEFT:  2.00D  GRAD.:     2.118 HEAT: -69.58097
 CYCLE:    85 TIME:   0.461 TIME LEFT:  2.00D  GRAD.:     1.757 HEAT: -69.58901
 CYCLE:    86 TIME:   0.461 TIME LEFT:  2.00D  GRAD.:     1.654 HEAT: -69.59602
 CYCLE:    87 TIME:   0.461 TIME LEFT:  2.00D  GRAD.:     1.448 HEAT: -69.60214
 CYCLE:    88 TIME:   0.465 TIME LEFT:  2.00D  GRAD.:     1.645 HEAT: -69.60855
 CYCLE:    89 TIME:   0.461 TIME LEFT:  2.00D  GRAD.:     1.554 HEAT: -69.61340
 CYCLE:    90 TIME:   0.461 TIME LEFT:  2.00D  GRAD.:     1.196 HEAT: -69.61776
 CYCLE:    91 TIME:   0.465 TIME LEFT:  2.00D  GRAD.:     0.759 HEAT: -69.62022
 CYCLE:    92 TIME:   0.461 TIME LEFT:  2.00D  GRAD.:     0.683 HEAT: -69.62222
 CYCLE:    93 TIME:   0.461 TIME LEFT:  2.00D  GRAD.:     0.704 HEAT: -69.62261
 CYCLE:    94 TIME:   0.465 TIME LEFT:  2.00D  GRAD.:     0.687 HEAT: -69.62322
 CYCLE:    95 TIME:   0.457 TIME LEFT:  2.00D  GRAD.:     0.640 HEAT: -69.62413
 CYCLE:    96 TIME:   0.465 TIME LEFT:  2.00D  GRAD.:     0.703 HEAT: -69.62492
 CYCLE:    97 TIME:   0.461 TIME LEFT:  2.00D  GRAD.:     0.653 HEAT: -69.62512
 CYCLE:    98 TIME:   0.465 TIME LEFT:  2.00D  GRAD.:     0.863 HEAT: -69.62688
 CYCLE:    99 TIME:   0.465 TIME LEFT:  2.00D  GRAD.:     0.974 HEAT: -69.62845
 CYCLE:   100 TIME:   0.465 TIME LEFT:  2.00D  GRAD.:     2.875 HEAT: -69.62458
 CYCLE:   101 TIME:   0.469 TIME LEFT:  2.00D  GRAD.:     1.548 HEAT: -69.63384
 CYCLE:   102 TIME:   0.461 TIME LEFT:  2.00D  GRAD.:     1.236 HEAT: -69.63597
 CYCLE:   103 TIME:   0.469 TIME LEFT:  2.00D  GRAD.:     4.889 HEAT: -69.63620
 CYCLE:   104 TIME:   0.469 TIME LEFT:  2.00D  GRAD.:     1.706 HEAT: -69.65181
 CYCLE:   105 TIME:   0.465 TIME LEFT:  2.00D  GRAD.:     1.458 HEAT: -69.65649
 CYCLE:   106 TIME:   0.469 TIME LEFT:  2.00D  GRAD.:     2.088 HEAT: -69.66505
 CYCLE:   107 TIME:   0.469 TIME LEFT:  2.00D  GRAD.:     0.976 HEAT: -69.66946
 CYCLE:   108 TIME:   0.465 TIME LEFT:  2.00D  GRAD.:     0.843 HEAT: -69.67112
 CYCLE:   109 TIME:   0.934 TIME LEFT:  2.00D  GRAD.:     2.397 HEAT: -69.67979
 CYCLE:   110 TIME:   0.480 TIME LEFT:  2.00D  GRAD.:     1.863 HEAT: -69.68271
 CYCLE:   111 TIME:   0.477 TIME LEFT:  2.00D  GRAD.:     1.411 HEAT: -69.69248
 CYCLE:   112 TIME:   0.477 TIME LEFT:  2.00D  GRAD.:     1.554 HEAT: -69.70106
 CYCLE:   113 TIME:   0.480 TIME LEFT:  2.00D  GRAD.:     1.750 HEAT: -69.71162
 CYCLE:   114 TIME:   0.473 TIME LEFT:  2.00D  GRAD.:     1.388 HEAT: -69.71519
 CYCLE:   115 TIME:   0.480 TIME LEFT:  2.00D  GRAD.:     2.262 HEAT: -69.71498
 CYCLE:   116 TIME:   0.469 TIME LEFT:  2.00D  GRAD.:     0.731 HEAT: -69.71860
 CYCLE:   117 TIME:   0.465 TIME LEFT:  2.00D  GRAD.:     0.581 HEAT: -69.71947
 CYCLE:   118 TIME:   0.473 TIME LEFT:  2.00D  GRAD.:     1.137 HEAT: -69.72006
 CYCLE:   119 TIME:   0.465 TIME LEFT:  2.00D  GRAD.:     0.755 HEAT: -69.72111
 CYCLE:   120 TIME:   0.473 TIME LEFT:  2.00D  GRAD.:     0.783 HEAT: -69.72251
 CYCLE:   121 TIME:   0.465 TIME LEFT:  2.00D  GRAD.:     0.708 HEAT: -69.72334
 CYCLE:   122 TIME:   0.469 TIME LEFT:  2.00D  GRAD.:     0.640 HEAT: -69.72556
 CYCLE:   123 TIME:   0.469 TIME LEFT:  2.00D  GRAD.:     0.835 HEAT: -69.72773
 CYCLE:   124 TIME:   0.469 TIME LEFT:  2.00D  GRAD.:     1.172 HEAT: -69.73078
 CYCLE:   125 TIME:   0.469 TIME LEFT:  2.00D  GRAD.:     1.706 HEAT: -69.73478
 CYCLE:   126 TIME:   0.473 TIME LEFT:  2.00D  GRAD.:     2.283 HEAT: -69.73807
 CYCLE:   127 TIME:   0.469 TIME LEFT:  2.00D  GRAD.:     3.235 HEAT: -69.74341
 CYCLE:   128 TIME:   0.465 TIME LEFT:  2.00D  GRAD.:     3.669 HEAT: -69.75323
 CYCLE:   129 TIME:   0.473 TIME LEFT:  2.00D  GRAD.:    12.034 HEAT: -69.75993
 CYCLE:   130 TIME:   0.469 TIME LEFT:  2.00D  GRAD.:     9.148 HEAT: -69.84007
 CYCLE:   131 TIME:   0.469 TIME LEFT:  2.00D  GRAD.:    10.825 HEAT: -69.96504
 CYCLE:   132 TIME:   0.469 TIME LEFT:  2.00D  GRAD.:    10.968 HEAT: -70.02199
 CYCLE:   133 TIME:   0.473 TIME LEFT:  2.00D  GRAD.:    10.390 HEAT: -70.04679
 CYCLE:   134 TIME:   0.469 TIME LEFT:  2.00D  GRAD.:     9.252 HEAT: -70.06195
 CYCLE:   135 TIME:   0.469 TIME LEFT:  2.00D  GRAD.:     9.565 HEAT: -70.06941
 CYCLE:   136 TIME:   0.938 TIME LEFT:  2.00D  GRAD.:    11.435 HEAT: -70.14342
 CYCLE:   137 TIME:   0.473 TIME LEFT:  2.00D  GRAD.:    15.996 HEAT: -70.29669
 CYCLE:   138 TIME:   0.473 TIME LEFT:  2.00D  GRAD.:    15.842 HEAT: -70.35817
 CYCLE:   139 TIME:   0.473 TIME LEFT:  2.00D  GRAD.:    15.514 HEAT: -70.48757
 CYCLE:   140 TIME:   0.469 TIME LEFT:  2.00D  GRAD.:    14.201 HEAT: -70.52316
 CYCLE:   141 TIME:   0.473 TIME LEFT:  2.00D  GRAD.:    13.824 HEAT: -70.55962
 CYCLE:   142 TIME:   0.465 TIME LEFT:  2.00D  GRAD.:    14.035 HEAT: -70.68909
 CYCLE:   143 TIME:   0.473 TIME LEFT:  2.00D  GRAD.:    16.248 HEAT: -70.99267
 CYCLE:   144 TIME:   0.473 TIME LEFT:  2.00D  GRAD.:    14.602 HEAT: -71.04401
 CYCLE:   145 TIME:   0.473 TIME LEFT:  2.00D  GRAD.:    15.296 HEAT: -71.15810
 CYCLE:   146 TIME:   0.477 TIME LEFT:  2.00D  GRAD.:    13.226 HEAT: -71.21204
 CYCLE:   147 TIME:   0.469 TIME LEFT:  2.00D  GRAD.:    15.203 HEAT: -71.26340
 CYCLE:   148 TIME:   0.473 TIME LEFT:  2.00D  GRAD.:    13.713 HEAT: -71.29313
 CYCLE:   149 TIME:   0.469 TIME LEFT:  2.00D  GRAD.:    16.454 HEAT: -71.33049
 CYCLE:   150 TIME:   0.469 TIME LEFT:  2.00D  GRAD.:    11.663 HEAT: -71.37801
 CYCLE:   151 TIME:   0.473 TIME LEFT:  2.00D  GRAD.:    11.325 HEAT: -71.48456
 CYCLE:   152 TIME:   0.465 TIME LEFT:  2.00D  GRAD.:    10.342 HEAT: -71.50340
 CYCLE:   153 TIME:   0.473 TIME LEFT:  2.00D  GRAD.:    16.265 HEAT: -71.52255
 CYCLE:   154 TIME:   0.473 TIME LEFT:  2.00D  GRAD.:     9.644 HEAT: -71.63204
 CYCLE:   155 TIME:   0.469 TIME LEFT:  2.00D  GRAD.:    10.611 HEAT: -71.66779
 CYCLE:   156 TIME:   0.934 TIME LEFT:  2.00D  GRAD.:    12.113 HEAT: -71.79463
 CYCLE:   157 TIME:   0.469 TIME LEFT:  2.00D  GRAD.:     8.545 HEAT: -71.83330
 CYCLE:   158 TIME:   0.473 TIME LEFT:  2.00D  GRAD.:     9.779 HEAT: -71.90669
 CYCLE:   159 TIME:   0.477 TIME LEFT:  2.00D  GRAD.:    10.496 HEAT: -71.98929
 CYCLE:   160 TIME:   0.469 TIME LEFT:  2.00D  GRAD.:     9.761 HEAT: -71.99966
 CYCLE:   161 TIME:   0.469 TIME LEFT:  2.00D  GRAD.:    11.753 HEAT: -72.07097
 CYCLE:   162 TIME:   0.469 TIME LEFT:  2.00D  GRAD.:     8.938 HEAT: -72.17967
 CYCLE:   163 TIME:   0.469 TIME LEFT:  2.00D  GRAD.:     8.415 HEAT: -72.19664
 CYCLE:   164 TIME:   0.469 TIME LEFT:  2.00D  GRAD.:    17.119 HEAT: -72.42002
 CYCLE:   165 TIME:   0.473 TIME LEFT:  2.00D  GRAD.:     9.749 HEAT: -72.61912
 CYCLE:   166 TIME:   0.469 TIME LEFT:  2.00D  GRAD.:     9.811 HEAT: -72.65491
 CYCLE:   167 TIME:   0.473 TIME LEFT:  2.00D  GRAD.:    24.417 HEAT: -73.03255
 CYCLE:   168 TIME:   0.469 TIME LEFT:  2.00D  GRAD.:    18.095 HEAT: -73.19556
 CYCLE:   169 TIME:   0.473 TIME LEFT:  2.00D  GRAD.:    11.434 HEAT: -73.27720
 CYCLE:   170 TIME:   0.469 TIME LEFT:  2.00D  GRAD.:    14.863 HEAT: -73.44860
 CYCLE:   171 TIME:   0.469 TIME LEFT:  2.00D  GRAD.:     9.779 HEAT: -73.50521
 CYCLE:   172 TIME:   0.469 TIME LEFT:  2.00D  GRAD.:    10.092 HEAT: -73.54326
 CYCLE:   173 TIME:   0.469 TIME LEFT:  2.00D  GRAD.:     8.577 HEAT: -73.59829
 CYCLE:   174 TIME:   0.477 TIME LEFT:  2.00D  GRAD.:     8.190 HEAT: -73.64535
 CYCLE:   175 TIME:   0.469 TIME LEFT:  2.00D  GRAD.:     8.147 HEAT: -73.67371
 CYCLE:   176 TIME:   0.473 TIME LEFT:  2.00D  GRAD.:    10.394 HEAT: -73.75252
 CYCLE:   177 TIME:   0.473 TIME LEFT:  2.00D  GRAD.:     9.802 HEAT: -74.15548
 CYCLE:   178 TIME:   0.473 TIME LEFT:  2.00D  GRAD.:    20.840 HEAT: -74.60137
 CYCLE:   179 TIME:   0.473 TIME LEFT:  2.00D  GRAD.:    25.223 HEAT: -75.04649
 CYCLE:   180 TIME:   0.469 TIME LEFT:  2.00D  GRAD.:    22.285 HEAT: -75.19175
 CYCLE:   181 TIME:   0.473 TIME LEFT:  2.00D  GRAD.:    18.218 HEAT: -75.49824
 CYCLE:   182 TIME:   0.469 TIME LEFT:  2.00D  GRAD.:    19.717 HEAT: -75.73301
 CYCLE:   183 TIME:   0.492 TIME LEFT:  2.00D  GRAD.:    32.732 HEAT: -75.93037
 CYCLE:   184 TIME:   0.477 TIME LEFT:  2.00D  GRAD.:    41.023 HEAT: -76.12286
 CYCLE:   185 TIME:   0.477 TIME LEFT:  2.00D  GRAD.:    23.270 HEAT: -76.55156
 CYCLE:   186 TIME:   0.473 TIME LEFT:  2.00D  GRAD.:    19.698 HEAT: -76.85059
 CYCLE:   187 TIME:   0.473 TIME LEFT:  2.00D  GRAD.:    19.056 HEAT: -77.07347
 CYCLE:   188 TIME:   0.473 TIME LEFT:  2.00D  GRAD.:    19.943 HEAT: -77.36069
 CYCLE:   189 TIME:   0.473 TIME LEFT:  2.00D  GRAD.:    19.933 HEAT: -77.67862
 CYCLE:   190 TIME:   0.477 TIME LEFT:  2.00D  GRAD.:    13.407 HEAT: -77.92522
 CYCLE:   191 TIME:   0.469 TIME LEFT:  2.00D  GRAD.:    16.060 HEAT: -78.08855
 CYCLE:   192 TIME:   0.473 TIME LEFT:  2.00D  GRAD.:    22.173 HEAT: -78.59755
 CYCLE:   193 TIME:   0.477 TIME LEFT:  2.00D  GRAD.:    23.937 HEAT: -79.54353
 CYCLE:   194 TIME:   0.477 TIME LEFT:  2.00D  GRAD.:    34.047 HEAT: -80.40010
 CYCLE:   195 TIME:   0.477 TIME LEFT:  2.00D  GRAD.:    33.988 HEAT: -81.50057
 CYCLE:   196 TIME:   0.480 TIME LEFT:  2.00D  GRAD.:    34.989 HEAT: -81.84361
 CYCLE:   197 TIME:   0.480 TIME LEFT:  2.00D  GRAD.:    19.865 HEAT: -82.37556
 CYCLE:   198 TIME:   0.941 TIME LEFT:  2.00D  GRAD.:    39.109 HEAT: -82.39315
 CYCLE:   199 TIME:   0.473 TIME LEFT:  2.00D  GRAD.:    25.227 HEAT: -82.70594
 CYCLE:   200 TIME:   0.477 TIME LEFT:  2.00D  GRAD.:    18.047 HEAT: -82.87035
 CYCLE:   201 TIME:   0.477 TIME LEFT:  2.00D  GRAD.:    16.268 HEAT: -83.16191
 CYCLE:   202 TIME:   0.477 TIME LEFT:  2.00D  GRAD.:    18.888 HEAT: -83.35574
 CYCLE:   203 TIME:   0.480 TIME LEFT:  2.00D  GRAD.:    26.366 HEAT: -83.53964
 CYCLE:   204 TIME:   0.477 TIME LEFT:  2.00D  GRAD.:    20.709 HEAT: -83.75779
 CYCLE:   205 TIME:   0.477 TIME LEFT:  2.00D  GRAD.:    18.035 HEAT: -84.05318
 CYCLE:   206 TIME:   0.477 TIME LEFT:  2.00D  GRAD.:    12.919 HEAT: -84.48369
 CYCLE:   207 TIME:   0.480 TIME LEFT:  2.00D  GRAD.:    26.882 HEAT: -84.77336
 CYCLE:   208 TIME:   0.480 TIME LEFT:  2.00D  GRAD.:    12.658 HEAT: -85.70799
 CYCLE:   209 TIME:   0.477 TIME LEFT:  2.00D  GRAD.:    30.184 HEAT: -85.81416
 CYCLE:   210 TIME:   0.477 TIME LEFT:  2.00D  GRAD.:    15.227 HEAT: -87.32980
 CYCLE:   211 TIME:   0.477 TIME LEFT:  2.00D  GRAD.:    23.203 HEAT: -88.12213
 CYCLE:   212 TIME:   0.477 TIME LEFT:  2.00D  GRAD.:    18.407 HEAT: -89.15105
 CYCLE:   213 TIME:   0.473 TIME LEFT:  2.00D  GRAD.:    50.308 HEAT: -90.33019
 CYCLE:   214 TIME:   0.469 TIME LEFT:  2.00D  GRAD.:    59.085 HEAT: -91.53652
 CYCLE:   215 TIME:   0.473 TIME LEFT:  2.00D  GRAD.:    58.384 HEAT: -91.97555
 CYCLE:   216 TIME:   0.477 TIME LEFT:  2.00D  GRAD.:    59.887 HEAT: -93.14657
 CYCLE:   217 TIME:   1.398 TIME LEFT:  2.00D  GRAD.:    39.797 HEAT: -93.93045
 CYCLE:   218 TIME:   0.465 TIME LEFT:  2.00D  GRAD.:    28.663 HEAT: -94.42496
 CYCLE:   219 TIME:   0.469 TIME LEFT:  2.00D  GRAD.:    37.822 HEAT: -94.54629
 CYCLE:   220 TIME:   0.473 TIME LEFT:  2.00D  GRAD.:    27.293 HEAT: -95.17413
 CYCLE:   221 TIME:   0.465 TIME LEFT:  2.00D  GRAD.:    32.023 HEAT: -95.44116
 CYCLE:   222 TIME:   0.465 TIME LEFT:  2.00D  GRAD.:    26.655 HEAT: -95.98156
 CYCLE:   223 TIME:   0.938 TIME LEFT:  2.00D  GRAD.:    33.498 HEAT: -96.01633
 CYCLE:   224 TIME:   0.465 TIME LEFT:  2.00D  GRAD.:    23.365 HEAT: -96.36066
 CYCLE:   225 TIME:   0.926 TIME LEFT:  2.00D  GRAD.:    28.770 HEAT: -96.41870
 CYCLE:   226 TIME:   0.465 TIME LEFT:  2.00D  GRAD.:    17.684 HEAT: -96.65210
 CYCLE:   227 TIME:   0.922 TIME LEFT:  2.00D  GRAD.:    27.130 HEAT: -96.66357
 CYCLE:   228 TIME:   0.461 TIME LEFT:  2.00D  GRAD.:    12.796 HEAT: -96.87003
 CYCLE:   229 TIME:   0.465 TIME LEFT:  2.00D  GRAD.:    19.191 HEAT: -96.92281
 CYCLE:   230 TIME:   0.461 TIME LEFT:  2.00D  GRAD.:    12.153 HEAT: -97.06942
 CYCLE:   231 TIME:   0.461 TIME LEFT:  2.00D  GRAD.:    11.815 HEAT: -97.11521
 CYCLE:   232 TIME:   0.457 TIME LEFT:  2.00D  GRAD.:    12.223 HEAT: -97.18957
 CYCLE:   233 TIME:   0.457 TIME LEFT:  2.00D  GRAD.:    15.075 HEAT: -97.22532
 CYCLE:   234 TIME:   0.465 TIME LEFT:  2.00D  GRAD.:    15.256 HEAT: -97.29131
 CYCLE:   235 TIME:   0.457 TIME LEFT:  2.00D  GRAD.:    15.400 HEAT: -97.38163
 CYCLE:   236 TIME:   0.457 TIME LEFT:  2.00D  GRAD.:    12.821 HEAT: -97.48752
 CYCLE:   237 TIME:   0.461 TIME LEFT:  2.00D  GRAD.:     9.895 HEAT: -97.60335
 CYCLE:   238 TIME:   0.461 TIME LEFT:  2.00D  GRAD.:    14.622 HEAT: -97.71080
 CYCLE:   239 TIME:   0.469 TIME LEFT:  2.00D  GRAD.:    16.622 HEAT: -97.84620
 CYCLE:   240 TIME:   0.461 TIME LEFT:  2.00D  GRAD.:    14.919 HEAT: -97.94951
 CYCLE:   241 TIME:   0.461 TIME LEFT:  2.00D  GRAD.:    15.676 HEAT: -98.10890
 CYCLE:   242 TIME:   0.461 TIME LEFT:  2.00D  GRAD.:    13.805 HEAT: -98.22106
 CYCLE:   243 TIME:   0.461 TIME LEFT:  2.00D  GRAD.:    10.719 HEAT: -98.33233
 CYCLE:   244 TIME:   0.465 TIME LEFT:  2.00D  GRAD.:    11.652 HEAT: -98.41800
 CYCLE:   245 TIME:   0.457 TIME LEFT:  2.00D  GRAD.:     8.173 HEAT: -98.47596
 CYCLE:   246 TIME:   0.461 TIME LEFT:  2.00D  GRAD.:    12.497 HEAT: -98.53374
 CYCLE:   247 TIME:   0.461 TIME LEFT:  2.00D  GRAD.:     9.334 HEAT: -98.61053
 CYCLE:   248 TIME:   0.465 TIME LEFT:  2.00D  GRAD.:     8.178 HEAT: -98.68114
 CYCLE:   249 TIME:   0.465 TIME LEFT:  2.00D  GRAD.:    10.228 HEAT: -98.79664
 CYCLE:   250 TIME:   0.465 TIME LEFT:  2.00D  GRAD.:    14.652 HEAT: -98.93470
 CYCLE:   251 TIME:   0.461 TIME LEFT:  2.00D  GRAD.:     9.457 HEAT: -99.01513
 CYCLE:   252 TIME:   0.465 TIME LEFT:  2.00D  GRAD.:     8.631 HEAT: -99.08415
 CYCLE:   253 TIME:   0.465 TIME LEFT:  2.00D  GRAD.:     6.659 HEAT: -99.12643
 CYCLE:   254 TIME:   0.457 TIME LEFT:  2.00D  GRAD.:     4.248 HEAT: -99.15014
 CYCLE:   255 TIME:   0.457 TIME LEFT:  2.00D  GRAD.:     3.178 HEAT: -99.16319
 CYCLE:   256 TIME:   0.461 TIME LEFT:  2.00D  GRAD.:     4.246 HEAT: -99.17393
 CYCLE:   257 TIME:   0.457 TIME LEFT:  2.00D  GRAD.:     3.938 HEAT: -99.18427
 CYCLE:   258 TIME:   0.465 TIME LEFT:  2.00D  GRAD.:     3.055 HEAT: -99.19587
 CYCLE:   259 TIME:   0.461 TIME LEFT:  2.00D  GRAD.:     2.814 HEAT: -99.20381
 CYCLE:   260 TIME:   0.461 TIME LEFT:  2.00D  GRAD.:     2.818 HEAT: -99.21459
 CYCLE:   261 TIME:   0.461 TIME LEFT:  2.00D  GRAD.:     3.017 HEAT: -99.22308
 CYCLE:   262 TIME:   0.461 TIME LEFT:  2.00D  GRAD.:     3.362 HEAT: -99.23636
 CYCLE:   263 TIME:   0.477 TIME LEFT:  2.00D  GRAD.:     3.716 HEAT: -99.25460
 CYCLE:   264 TIME:   0.461 TIME LEFT:  2.00D  GRAD.:     3.529 HEAT: -99.27429
 CYCLE:   265 TIME:   0.457 TIME LEFT:  2.00D  GRAD.:     3.111 HEAT: -99.29379
 CYCLE:   266 TIME:   0.461 TIME LEFT:  2.00D  GRAD.:     3.247 HEAT: -99.31024
 CYCLE:   267 TIME:   0.461 TIME LEFT:  2.00D  GRAD.:     3.193 HEAT: -99.31837
 CYCLE:   268 TIME:   0.461 TIME LEFT:  2.00D  GRAD.:     2.169 HEAT: -99.32317
 CYCLE:   269 TIME:   0.461 TIME LEFT:  2.00D  GRAD.:     2.301 HEAT: -99.32774
 CYCLE:   270 TIME:   0.461 TIME LEFT:  2.00D  GRAD.:     2.341 HEAT: -99.33456
 CYCLE:   271 TIME:   0.461 TIME LEFT:  2.00D  GRAD.:     1.859 HEAT: -99.33916
 CYCLE:   272 TIME:   0.461 TIME LEFT:  2.00D  GRAD.:     2.986 HEAT: -99.35844
 CYCLE:   273 TIME:   0.461 TIME LEFT:  2.00D  GRAD.:     4.565 HEAT: -99.39235
 CYCLE:   274 TIME:   0.465 TIME LEFT:  2.00D  GRAD.:     5.202 HEAT: -99.42623
 CYCLE:   275 TIME:   0.457 TIME LEFT:  2.00D  GRAD.:     8.990 HEAT: -99.48669
 CYCLE:   276 TIME:   0.461 TIME LEFT:  2.00D  GRAD.:    10.626 HEAT: -99.58336
 CYCLE:   277 TIME:   0.461 TIME LEFT:  2.00D  GRAD.:     7.855 HEAT: -99.66356
 CYCLE:   278 TIME:   0.461 TIME LEFT:  2.00D  GRAD.:    11.636 HEAT: -99.67548
 CYCLE:   279 TIME:   0.461 TIME LEFT:  2.00D  GRAD.:     5.939 HEAT: -99.73802
 CYCLE:   280 TIME:   0.457 TIME LEFT:  2.00D  GRAD.:     5.523 HEAT: -99.76266
 CYCLE:   281 TIME:   0.461 TIME LEFT:  2.00D  GRAD.:     4.940 HEAT: -99.81260
 CYCLE:   282 TIME:   0.461 TIME LEFT:  2.00D  GRAD.:     7.070 HEAT: -99.86856
 CYCLE:   283 TIME:   0.461 TIME LEFT:  2.00D  GRAD.:     5.405 HEAT: -99.89240
 CYCLE:   284 TIME:   0.465 TIME LEFT:  2.00D  GRAD.:     3.745 HEAT: -99.91651
 CYCLE:   285 TIME:   0.461 TIME LEFT:  2.00D  GRAD.:     3.142 HEAT: -99.93388
 CYCLE:   286 TIME:   0.461 TIME LEFT:  2.00D  GRAD.:     2.975 HEAT: -99.94478
 CYCLE:   287 TIME:   0.461 TIME LEFT:  2.00D  GRAD.:     3.062 HEAT: -99.95692
 CYCLE:   288 TIME:   0.461 TIME LEFT:  2.00D  GRAD.:     3.903 HEAT: -99.96777
 CYCLE:   289 TIME:   0.461 TIME LEFT:  2.00D  GRAD.:     4.057 HEAT: -99.97863
 CYCLE:   290 TIME:   0.422 TIME LEFT:  2.00D  GRAD.:     3.826 HEAT: -99.99373
 CYCLE:   291 TIME:   0.297 TIME LEFT:  2.00D  GRAD.:     4.719 HEAT: -100.0111
 CYCLE:   292 TIME:   0.289 TIME LEFT:  2.00D  GRAD.:     3.783 HEAT: -100.0284
 CYCLE:   293 TIME:   0.293 TIME LEFT:  2.00D  GRAD.:     4.302 HEAT: -100.0448
 CYCLE:   294 TIME:   0.586 TIME LEFT:  2.00D  GRAD.:     5.258 HEAT: -100.0508
 CYCLE:   295 TIME:   0.293 TIME LEFT:  2.00D  GRAD.:     3.200 HEAT: -100.0666
 CYCLE:   296 TIME:   0.270 TIME LEFT:  2.00D  GRAD.:     2.944 HEAT: -100.0767
 CYCLE:   297 TIME:   0.270 TIME LEFT:  2.00D  GRAD.:     3.200 HEAT: -100.0861
 CYCLE:   298 TIME:   0.270 TIME LEFT:  2.00D  GRAD.:     3.167 HEAT: -100.0960
 CYCLE:   299 TIME:   0.273 TIME LEFT:  2.00D  GRAD.:     2.800 HEAT: -100.1047
 CYCLE:   300 TIME:   0.273 TIME LEFT:  2.00D  GRAD.:     2.263 HEAT: -100.1118
 CYCLE:   301 TIME:   0.289 TIME LEFT:  2.00D  GRAD.:     1.850 HEAT: -100.1176
 CYCLE:   302 TIME:   0.281 TIME LEFT:  2.00D  GRAD.:     1.805 HEAT: -100.1225
 CYCLE:   303 TIME:   0.285 TIME LEFT:  2.00D  GRAD.:     2.149 HEAT: -100.1279
 CYCLE:   304 TIME:   0.285 TIME LEFT:  2.00D  GRAD.:     2.603 HEAT: -100.1347
 CYCLE:   305 TIME:   0.277 TIME LEFT:  2.00D  GRAD.:     3.011 HEAT: -100.1433
 CYCLE:   306 TIME:   0.281 TIME LEFT:  2.00D  GRAD.:     3.031 HEAT: -100.1535
 CYCLE:   307 TIME:   0.281 TIME LEFT:  2.00D  GRAD.:     2.883 HEAT: -100.1640
 CYCLE:   308 TIME:   0.277 TIME LEFT:  2.00D  GRAD.:     2.485 HEAT: -100.1727
 CYCLE:   309 TIME:   0.285 TIME LEFT:  2.00D  GRAD.:     2.030 HEAT: -100.1789
 CYCLE:   310 TIME:   0.281 TIME LEFT:  2.00D  GRAD.:     2.290 HEAT: -100.1825
 CYCLE:   311 TIME:   0.281 TIME LEFT:  2.00D  GRAD.:     1.366 HEAT: -100.1853
 CYCLE:   312 TIME:   0.281 TIME LEFT:  2.00D  GRAD.:     0.984 HEAT: -100.1868
 CYCLE:   313 TIME:   0.281 TIME LEFT:  2.00D  GRAD.:     0.999 HEAT: -100.1879
 CYCLE:   314 TIME:   0.281 TIME LEFT:  2.00D  GRAD.:     0.879 HEAT: -100.1885
 CYCLE:   315 TIME:   0.293 TIME LEFT:  2.00D  GRAD.:     0.754 HEAT: -100.1890
 CYCLE:   316 TIME:   0.281 TIME LEFT:  2.00D  GRAD.:     0.688 HEAT: -100.1894
 CYCLE:   317 TIME:   0.281 TIME LEFT:  2.00D  GRAD.:     0.743 HEAT: -100.1898
 CYCLE:   318 TIME:   0.281 TIME LEFT:  2.00D  GRAD.:     0.701 HEAT: -100.1901
 CYCLE:   319 TIME:   0.285 TIME LEFT:  2.00D  GRAD.:     0.764 HEAT: -100.1905
 CYCLE:   320 TIME:   0.281 TIME LEFT:  2.00D  GRAD.:     0.809 HEAT: -100.1909
 CYCLE:   321 TIME:   0.281 TIME LEFT:  2.00D  GRAD.:     0.893 HEAT: -100.1917
 CYCLE:   322 TIME:   0.281 TIME LEFT:  2.00D  GRAD.:     0.815 HEAT: -100.1925
 CYCLE:   323 TIME:   0.285 TIME LEFT:  2.00D  GRAD.:     1.113 HEAT: -100.1932
 CYCLE:   324 TIME:   0.293 TIME LEFT:  2.00D  GRAD.:     0.860 HEAT: -100.1937
 CYCLE:   325 TIME:   0.453 TIME LEFT:  2.00D  GRAD.:     0.792 HEAT: -100.1944
 CYCLE:   326 TIME:   0.457 TIME LEFT:  2.00D  GRAD.:     1.714 HEAT: -100.1906
 CYCLE:   327 TIME:   0.457 TIME LEFT:  2.00D  GRAD.:     0.927 HEAT: -100.1959
 CYCLE:   328 TIME:   0.457 TIME LEFT:  2.00D  GRAD.:     0.856 HEAT: -100.1965
 CYCLE:   329 TIME:   0.457 TIME LEFT:  2.00D  GRAD.:     1.746 HEAT: -100.1951
 CYCLE:   330 TIME:   0.453 TIME LEFT:  2.00D  GRAD.:     1.051 HEAT: -100.1983
 CYCLE:   331 TIME:   0.457 TIME LEFT:  2.00D  GRAD.:     1.048 HEAT: -100.1994
 CYCLE:   332 TIME:   0.453 TIME LEFT:  2.00D  GRAD.:     1.330 HEAT: -100.2045
 CYCLE:   333 TIME:   0.453 TIME LEFT:  2.00D  GRAD.:     1.235 HEAT: -100.2076
 CYCLE:   334 TIME:   0.457 TIME LEFT:  2.00D  GRAD.:     1.793 HEAT: -100.2155
 CYCLE:   335 TIME:   0.453 TIME LEFT:  2.00D  GRAD.:     1.484 HEAT: -100.2178
 CYCLE:   336 TIME:   0.457 TIME LEFT:  2.00D  GRAD.:     3.905 HEAT: -100.2192
 CYCLE:   337 TIME:   0.457 TIME LEFT:  2.00D  GRAD.:     2.036 HEAT: -100.2269
 CYCLE:   338 TIME:   0.453 TIME LEFT:  2.00D  GRAD.:     1.215 HEAT: -100.2312
 CYCLE:   339 TIME:   0.457 TIME LEFT:  2.00D  GRAD.:     1.206 HEAT: -100.2373
 CYCLE:   340 TIME:   0.457 TIME LEFT:  2.00D  GRAD.:     1.652 HEAT: -100.2445
 CYCLE:   341 TIME:   0.457 TIME LEFT:  2.00D  GRAD.:     1.719 HEAT: -100.2475
 CYCLE:   342 TIME:   0.453 TIME LEFT:  2.00D  GRAD.:     1.959 HEAT: -100.2489
 CYCLE:   343 TIME:   0.457 TIME LEFT:  2.00D  GRAD.:     0.845 HEAT: -100.2510
 CYCLE:   344 TIME:   0.453 TIME LEFT:  2.00D  GRAD.:     0.716 HEAT: -100.2520
 CYCLE:   345 TIME:   0.457 TIME LEFT:  2.00D  GRAD.:     0.685 HEAT: -100.2527
 CYCLE:   346 TIME:   0.453 TIME LEFT:  2.00D  GRAD.:     0.532 HEAT: -100.2536
 CYCLE:   347 TIME:   0.457 TIME LEFT:  2.00D  GRAD.:     0.626 HEAT: -100.2541
 CYCLE:   348 TIME:   0.457 TIME LEFT:  2.00D  GRAD.:     0.862 HEAT: -100.2543
 CYCLE:   349 TIME:   0.457 TIME LEFT:  2.00D  GRAD.:     0.677 HEAT: -100.2549
 CYCLE:   350 TIME:   0.449 TIME LEFT:  2.00D  GRAD.:     0.565 HEAT: -100.2555
 CYCLE:   351 TIME:   0.457 TIME LEFT:  2.00D  GRAD.:     1.422 HEAT: -100.2559
 CYCLE:   352 TIME:   0.457 TIME LEFT:  2.00D  GRAD.:     0.686 HEAT: -100.2581
 CYCLE:   353 TIME:   0.453 TIME LEFT:  2.00D  GRAD.:     0.501 HEAT: -100.2590
 CYCLE:   354 TIME:   0.457 TIME LEFT:  2.00D  GRAD.:     1.785 HEAT: -100.2544
 CYCLE:   355 TIME:   0.457 TIME LEFT:  2.00D  GRAD.:     0.330 HEAT: -100.2604
 CYCLE:   356 TIME:   0.453 TIME LEFT:  2.00D  GRAD.:     0.255 HEAT: -100.2606
 CYCLE:   357 TIME:   0.453 TIME LEFT:  2.00D  GRAD.:     0.318 HEAT: -100.2607
 CYCLE:   358 TIME:   0.453 TIME LEFT:  2.00D  GRAD.:     0.202 HEAT: -100.2608
 CYCLE:   359 TIME:   0.453 TIME LEFT:  2.00D  GRAD.:     0.944 HEAT: -100.2588
 CYCLE:   360 TIME:   0.457 TIME LEFT:  2.00D  GRAD.:     0.283 HEAT: -100.2612
 CYCLE:   361 TIME:   0.449 TIME LEFT:  2.00D  GRAD.:     0.180 HEAT: -100.2613
 CYCLE:   362 TIME:   0.453 TIME LEFT:  2.00D  GRAD.:     0.211 HEAT: -100.2613
 CYCLE:   363 TIME:   0.453 TIME LEFT:  2.00D  GRAD.:     1.027 HEAT: -100.2605
 CYCLE:   364 TIME:   0.453 TIME LEFT:  2.00D  GRAD.:     0.351 HEAT: -100.2613
 CYCLE:   365 TIME:   0.449 TIME LEFT:  2.00D  GRAD.:     0.299 HEAT: -100.2614
 CYCLE:   366 TIME:   0.457 TIME LEFT:  2.00D  GRAD.:     0.916 HEAT: -100.2614
 CYCLE:   367 TIME:   0.453 TIME LEFT:  2.00D  GRAD.:     0.512 HEAT: -100.2624
 CYCLE:   368 TIME:   0.453 TIME LEFT:  2.00D  GRAD.:     0.383 HEAT: -100.2628
 CYCLE:   369 TIME:   0.461 TIME LEFT:  2.00D  GRAD.:     1.058 HEAT: -100.2601
 CYCLE:   370 TIME:   0.457 TIME LEFT:  2.00D  GRAD.:     0.277 HEAT: -100.2632
 CYCLE:   371 TIME:   0.449 TIME LEFT:  2.00D  GRAD.:     0.262 HEAT: -100.2636
 CYCLE:   372 TIME:   0.457 TIME LEFT:  2.00D  GRAD.:     1.576 HEAT: -100.2606
 CYCLE:   373 TIME:   0.453 TIME LEFT:  2.00D  GRAD.:     0.344 HEAT: -100.2636
 CYCLE:   374 TIME:   0.453 TIME LEFT:  2.00D  GRAD.:     0.332 HEAT: -100.2636
 CYCLE:   375 TIME:   0.457 TIME LEFT:  2.00D  GRAD.:     0.585 HEAT: -100.2634
 CYCLE:   376 TIME:   0.453 TIME LEFT:  2.00D  GRAD.:     0.261 HEAT: -100.2636
 CYCLE:   377 TIME:   0.453 TIME LEFT:  2.00D  GRAD.:     0.157 HEAT: -100.2636
 CYCLE:   378 TIME:   0.449 TIME LEFT:  2.00D  GRAD.:     0.136 HEAT: -100.2636
 CYCLE:   379 TIME:   0.453 TIME LEFT:  2.00D  GRAD.:     0.209 HEAT: -100.2637
 CYCLE:   380 TIME:   0.453 TIME LEFT:  2.00D  GRAD.:     0.329 HEAT: -100.2636
 CYCLE:   381 TIME:   0.457 TIME LEFT:  2.00D  GRAD.:     0.139 HEAT: -100.2638
 CYCLE:   382 TIME:   0.453 TIME LEFT:  2.00D  GRAD.:     0.130 HEAT: -100.2638
 CYCLE:   383 TIME:   0.453 TIME LEFT:  2.00D  GRAD.:     0.160 HEAT: -100.2638
 CYCLE:   384 TIME:   0.457 TIME LEFT:  2.00D  GRAD.:     0.162 HEAT: -100.2637
 CYCLE:   385 TIME:   0.453 TIME LEFT:  2.00D  GRAD.:     0.106 HEAT: -100.2638
 CYCLE:   386 TIME:   0.453 TIME LEFT:  2.00D  GRAD.:     0.122 HEAT: -100.2638
 CYCLE:   387 TIME:   0.457 TIME LEFT:  2.00D  GRAD.:     0.578 HEAT: -100.2633
 CYCLE:   388 TIME:   0.453 TIME LEFT:  2.00D  GRAD.:     0.199 HEAT: -100.2639
 CYCLE:   389 TIME:   0.457 TIME LEFT:  2.00D  GRAD.:     0.114 HEAT: -100.2639
 CYCLE:   390 TIME:   0.449 TIME LEFT:  2.00D  GRAD.:     0.102 HEAT: -100.2639
 CYCLE:   391 TIME:   0.449 TIME LEFT:  2.00D  GRAD.:     0.121 HEAT: -100.2639
 CYCLE:   392 TIME:   0.453 TIME LEFT:  2.00D  GRAD.:     1.332 HEAT: -100.2631
 CYCLE:   393 TIME:   0.457 TIME LEFT:  2.00D  GRAD.:     1.303 HEAT: -100.2611
 CYCLE:   394 TIME:   0.457 TIME LEFT:  2.00D  GRAD.:     1.324 HEAT: -100.2633
 CYCLE:   395 TIME:   0.457 TIME LEFT:  2.00D  GRAD.:     0.532 HEAT: -100.2640
 CYCLE:   396 TIME:   0.453 TIME LEFT:  2.00D  GRAD.:     0.178 HEAT: -100.2641
 CYCLE:   397 TIME:   0.453 TIME LEFT:  2.00D  GRAD.:     0.212 HEAT: -100.2641
 CYCLE:   398 TIME:   0.453 TIME LEFT:  2.00D  GRAD.:     0.167 HEAT: -100.2641
 CYCLE:   399 TIME:   0.457 TIME LEFT:  2.00D  GRAD.:     4.504 HEAT: -100.2599
 CYCLE:   400 TIME:   0.914 TIME LEFT:  2.00D  GRAD.:     1.593 HEAT: -100.2604
 CYCLE:   401 TIME:   0.910 TIME LEFT:  2.00D  GRAD.:     4.908 HEAT: -100.2562
 CYCLE:   402 TIME:   0.457 TIME LEFT:  2.00D  GRAD.:     0.249 HEAT: -100.2642
 CYCLE:   403 TIME:   0.457 TIME LEFT:  2.00D  GRAD.:     0.429 HEAT: -100.2639
 CYCLE:   404 TIME:   0.453 TIME LEFT:  2.00D  GRAD.:     0.170 HEAT: -100.2641
 CYCLE:   405 TIME:   0.453 TIME LEFT:  2.00D  GRAD.:     0.142 HEAT: -100.2642
 CYCLE:   406 TIME:   0.457 TIME LEFT:  2.00D  GRAD.:     0.188 HEAT: -100.2642
 CYCLE:   407 TIME:   0.453 TIME LEFT:  2.00D  GRAD.:     0.233 HEAT: -100.2642
 CYCLE:   408 TIME:   0.453 TIME LEFT:  2.00D  GRAD.:     0.555 HEAT: -100.2640
 CYCLE:   409 TIME:   0.457 TIME LEFT:  2.00D  GRAD.:     0.216 HEAT: -100.2642
 CYCLE:   410 TIME:   0.457 TIME LEFT:  2.00D  GRAD.:     0.123 HEAT: -100.2642
 CYCLE:   411 TIME:   0.449 TIME LEFT:  2.00D  GRAD.:     0.125 HEAT: -100.2643
 CYCLE:   412 TIME:   0.453 TIME LEFT:  2.00D  GRAD.:     0.145 HEAT: -100.2643
 CYCLE:   413 TIME:   0.914 TIME LEFT:  2.00D  GRAD.:     1.963 HEAT: -100.2611
 CYCLE:   414 TIME:   0.465 TIME LEFT:  2.00D  GRAD.:     0.224 HEAT: -100.2647
 CYCLE:   415 TIME:   0.453 TIME LEFT:  2.00D  GRAD.:     0.146 HEAT: -100.2648
 CYCLE:   416 TIME:   0.457 TIME LEFT:  2.00D  GRAD.:     0.188 HEAT: -100.2648
 CYCLE:   417 TIME:   0.453 TIME LEFT:  2.00D  GRAD.:     0.112 HEAT: -100.2648
 CYCLE:   418 TIME:   0.457 TIME LEFT:  2.00D  GRAD.:     0.201 HEAT: -100.2645
 CYCLE:   419 TIME:   0.457 TIME LEFT:  2.00D  GRAD.:     0.136 HEAT: -100.2648
 CYCLE:   420 TIME:   0.453 TIME LEFT:  2.00D  GRAD.:     0.138 HEAT: -100.2648
 CYCLE:   421 TIME:   0.453 TIME LEFT:  2.00D  GRAD.:     0.126 HEAT: -100.2647
 CYCLE:   422 TIME:   0.457 TIME LEFT:  2.00D  GRAD.:     2.249 HEAT: -100.2590
 CYCLE:   423 TIME:   0.457 TIME LEFT:  2.00D  GRAD.:     0.209 HEAT: -100.2645
 CYCLE:   424 TIME:   0.457 TIME LEFT:  2.00D  GRAD.:     0.184 HEAT: -100.2648
 CYCLE:   425 TIME:   0.453 TIME LEFT:  2.00D  GRAD.:     0.127 HEAT: -100.2648
 CYCLE:   426 TIME:   0.449 TIME LEFT:  2.00D  GRAD.:     0.145 HEAT: -100.2647
 CYCLE:   427 TIME:   0.457 TIME LEFT:  2.00D  GRAD.:     0.238 HEAT: -100.2645
 CYCLE:   428 TIME:   0.457 TIME LEFT:  2.00D  GRAD.:     0.162 HEAT: -100.2648
 CYCLE:   429 TIME:   0.449 TIME LEFT:  2.00D  GRAD.:     0.142 HEAT: -100.2649
 CYCLE:   430 TIME:   0.457 TIME LEFT:  2.00D  GRAD.:     0.680 HEAT: -100.2642
 CYCLE:   431 TIME:   0.457 TIME LEFT:  2.00D  GRAD.:     0.157 HEAT: -100.2650
 CYCLE:   432 TIME:   0.453 TIME LEFT:  2.00D  GRAD.:     0.180 HEAT: -100.2651
 CYCLE:   433 TIME:   0.457 TIME LEFT:  2.00D  GRAD.:     0.323 HEAT: -100.2652
 CYCLE:   434 TIME:   0.453 TIME LEFT:  2.00D  GRAD.:     0.372 HEAT: -100.2653
 CYCLE:   435 TIME:   0.453 TIME LEFT:  2.00D  GRAD.:     0.306 HEAT: -100.2653
 CYCLE:   436 TIME:   0.457 TIME LEFT:  2.00D  GRAD.:     0.211 HEAT: -100.2653
 CYCLE:   437 TIME:   0.453 TIME LEFT:  2.00D  GRAD.:     0.208 HEAT: -100.2653
 CYCLE:   438 TIME:   0.457 TIME LEFT:  2.00D  GRAD.:     0.746 HEAT: -100.2650
 CYCLE:   439 TIME:   0.453 TIME LEFT:  2.00D  GRAD.:     0.621 HEAT: -100.2650
 CYCLE:   440 TIME:   0.457 TIME LEFT:  2.00D  GRAD.:     0.317 HEAT: -100.2654
 CYCLE:   441 TIME:   0.453 TIME LEFT:  2.00D  GRAD.:     0.186 HEAT: -100.2654
 CYCLE:   442 TIME:   0.449 TIME LEFT:  2.00D  GRAD.:     0.204 HEAT: -100.2654
 CYCLE:   443 TIME:   0.461 TIME LEFT:  2.00D  GRAD.:     1.294 HEAT: -100.2627
 CYCLE:   444 TIME:   0.457 TIME LEFT:  2.00D  GRAD.:     1.007 HEAT: -100.2645
 CYCLE:   445 TIME:   0.457 TIME LEFT:  2.00D  GRAD.:     0.270 HEAT: -100.2653
 CYCLE:   446 TIME:   0.453 TIME LEFT:  2.00D  GRAD.:     0.281 HEAT: -100.2653
 CYCLE:   447 TIME:   0.461 TIME LEFT:  2.00D  GRAD.:     0.303 HEAT: -100.2654
 CYCLE:   448 TIME:   0.457 TIME LEFT:  2.00D  GRAD.:     0.218 HEAT: -100.2653
 CYCLE:   449 TIME:   0.453 TIME LEFT:  2.00D  GRAD.:     0.175 HEAT: -100.2653
 CYCLE:   450 TIME:   0.453 TIME LEFT:  2.00D  GRAD.:     0.506 HEAT: -100.2653
 CYCLE:   451 TIME:   0.453 TIME LEFT:  2.00D  GRAD.:     0.172 HEAT: -100.2653
 CYCLE:   452 TIME:   0.449 TIME LEFT:  2.00D  GRAD.:     0.141 HEAT: -100.2653
 CYCLE:   453 TIME:   0.453 TIME LEFT:  2.00D  GRAD.:     0.140 HEAT: -100.2654
 CYCLE:   454 TIME:   0.453 TIME LEFT:  2.00D  GRAD.:     0.201 HEAT: -100.2655
 CYCLE:   455 TIME:   0.457 TIME LEFT:  2.00D  GRAD.:     0.192 HEAT: -100.2656
 CYCLE:   456 TIME:   0.449 TIME LEFT:  2.00D  GRAD.:     0.143 HEAT: -100.2655
 CYCLE:   457 TIME:   0.457 TIME LEFT:  2.00D  GRAD.:     1.372 HEAT: -100.2638
 CYCLE:   458 TIME:   0.457 TIME LEFT:  2.00D  GRAD.:     1.412 HEAT: -100.2628
 CYCLE:   459 TIME:   0.457 TIME LEFT:  2.00D  GRAD.:     0.908 HEAT: -100.2659
 CYCLE:   460 TIME:   0.457 TIME LEFT:  2.00D  GRAD.:     1.318 HEAT: -100.2640
 CYCLE:   461 TIME:   0.457 TIME LEFT:  2.00D  GRAD.:     0.543 HEAT: -100.2663
 CYCLE:   462 TIME:   0.457 TIME LEFT:  2.00D  GRAD.:     0.330 HEAT: -100.2664
 CYCLE:   463 TIME:   0.449 TIME LEFT:  2.00D  GRAD.:     0.248 HEAT: -100.2665
 CYCLE:   464 TIME:   0.457 TIME LEFT:  2.00D  GRAD.:     0.588 HEAT: -100.2664
 CYCLE:   465 TIME:   0.453 TIME LEFT:  2.00D  GRAD.:     0.296 HEAT: -100.2666
 CYCLE:   466 TIME:   0.453 TIME LEFT:  2.00D  GRAD.:     0.296 HEAT: -100.2666
 CYCLE:   467 TIME:   0.457 TIME LEFT:  2.00D  GRAD.:     0.240 HEAT: -100.2666
 CYCLE:   468 TIME:   0.453 TIME LEFT:  2.00D  GRAD.:     0.421 HEAT: -100.2667
 CYCLE:   469 TIME:   0.453 TIME LEFT:  2.00D  GRAD.:     0.316 HEAT: -100.2668
 CYCLE:   470 TIME:   0.457 TIME LEFT:  2.00D  GRAD.:     0.301 HEAT: -100.2668
 CYCLE:   471 TIME:   0.453 TIME LEFT:  2.00D  GRAD.:     0.222 HEAT: -100.2669
 CYCLE:   472 TIME:   0.453 TIME LEFT:  2.00D  GRAD.:     0.311 HEAT: -100.2670
 CYCLE:   473 TIME:   0.453 TIME LEFT:  2.00D  GRAD.:     0.189 HEAT: -100.2670
 CYCLE:   474 TIME:   0.453 TIME LEFT:  2.00D  GRAD.:     0.223 HEAT: -100.2671
 CYCLE:   475 TIME:   0.453 TIME LEFT:  2.00D  GRAD.:     0.155 HEAT: -100.2672
 CYCLE:   476 TIME:   0.457 TIME LEFT:  2.00D  GRAD.:     0.226 HEAT: -100.2672
 CYCLE:   477 TIME:   0.449 TIME LEFT:  2.00D  GRAD.:     0.169 HEAT: -100.2672
 CYCLE:   478 TIME:   0.457 TIME LEFT:  2.00D  GRAD.:     0.457 HEAT: -100.2671
 CYCLE:   479 TIME:   0.457 TIME LEFT:  2.00D  GRAD.:     0.549 HEAT: -100.2674
 CYCLE:   480 TIME:   0.453 TIME LEFT:  2.00D  GRAD.:     0.225 HEAT: -100.2676
 CYCLE:   481 TIME:   0.457 TIME LEFT:  2.00D  GRAD.:     0.200 HEAT: -100.2677
 CYCLE:   482 TIME:   0.453 TIME LEFT:  2.00D  GRAD.:     0.154 HEAT: -100.2677
 CYCLE:   483 TIME:   0.457 TIME LEFT:  2.00D  GRAD.:     1.713 HEAT: -100.2663
 CYCLE:   484 TIME:   0.457 TIME LEFT:  2.00D  GRAD.:     0.759 HEAT: -100.2663
 CYCLE:   485 TIME:   0.457 TIME LEFT:  2.00D  GRAD.:     0.802 HEAT: -100.2675
 CYCLE:   486 TIME:   0.453 TIME LEFT:  2.00D  GRAD.:     0.171 HEAT: -100.2679
 CYCLE:   487 TIME:   0.453 TIME LEFT:  2.00D  GRAD.:     0.134 HEAT: -100.2680
 CYCLE:   488 TIME:   0.453 TIME LEFT:  2.00D  GRAD.:     0.175 HEAT: -100.2680
 CYCLE:   489 TIME:   0.457 TIME LEFT:  2.00D  GRAD.:     0.306 HEAT: -100.2680
 CYCLE:   490 TIME:   0.457 TIME LEFT:  2.00D  GRAD.:     0.507 HEAT: -100.2681
 CYCLE:   491 TIME:   0.457 TIME LEFT:  2.00D  GRAD.:     0.205 HEAT: -100.2682
 CYCLE:   492 TIME:   0.457 TIME LEFT:  2.00D  GRAD.:     0.126 HEAT: -100.2683
 CYCLE:   493 TIME:   0.457 TIME LEFT:  2.00D  GRAD.:     1.200 HEAT: -100.2684
 CYCLE:   494 TIME:   0.457 TIME LEFT:  2.00D  GRAD.:     0.335 HEAT: -100.2688
 CYCLE:   495 TIME:   0.453 TIME LEFT:  2.00D  GRAD.:     0.295 HEAT: -100.2689
 CYCLE:   496 TIME:   0.457 TIME LEFT:  2.00D  GRAD.:     0.122 HEAT: -100.2690
 CYCLE:   497 TIME:   0.457 TIME LEFT:  2.00D  GRAD.:     0.107 HEAT: -100.2690
 CYCLE:   498 TIME:   0.453 TIME LEFT:  2.00D  GRAD.:     0.161 HEAT: -100.2690
 CYCLE:   499 TIME:   0.453 TIME LEFT:  2.00D  GRAD.:     0.084 HEAT: -100.2691
 CYCLE:   500 TIME:   0.457 TIME LEFT:  2.00D  GRAD.:     0.926 HEAT: -100.2688
 CYCLE:   501 TIME:   0.453 TIME LEFT:  2.00D  GRAD.:     0.112 HEAT: -100.2691
 CYCLE:   502 TIME:   0.453 TIME LEFT:  2.00D  GRAD.:     0.117 HEAT: -100.2692
 CYCLE:   503 TIME:   0.453 TIME LEFT:  2.00D  GRAD.:     0.144 HEAT: -100.2692
 CYCLE:   504 TIME:   0.453 TIME LEFT:  2.00D  GRAD.:     0.108 HEAT: -100.2692
 CYCLE:   505 TIME:   0.449 TIME LEFT:  2.00D  GRAD.:     0.168 HEAT: -100.2693
 CYCLE:   506 TIME:   0.453 TIME LEFT:  2.00D  GRAD.:     0.173 HEAT: -100.2693
 CYCLE:   507 TIME:   0.453 TIME LEFT:  2.00D  GRAD.:     2.236 HEAT: -100.2677
 CYCLE:   508 TIME:   0.453 TIME LEFT:  2.00D  GRAD.:     0.363 HEAT: -100.2689
 CYCLE:   509 TIME:   0.457 TIME LEFT:  2.00D  GRAD.:     1.604 HEAT: -100.2667
 CYCLE:   510 TIME:   0.457 TIME LEFT:  2.00D  GRAD.:     0.408 HEAT: -100.2692
 CYCLE:   511 TIME:   0.453 TIME LEFT:  2.00D  GRAD.:     0.296 HEAT: -100.2692
 CYCLE:   512 TIME:   0.453 TIME LEFT:  2.00D  GRAD.:     0.161 HEAT: -100.2692
 CYCLE:   513 TIME:   0.453 TIME LEFT:  2.00D  GRAD.:     0.115 HEAT: -100.2692
 CYCLE:   514 TIME:   0.453 TIME LEFT:  2.00D  GRAD.:     0.354 HEAT: -100.2691
 CYCLE:   515 TIME:   0.453 TIME LEFT:  2.00D  GRAD.:     0.301 HEAT: -100.2692
 CYCLE:   516 TIME:   0.457 TIME LEFT:  2.00D  GRAD.:     1.672 HEAT: -100.2661
 CYCLE:   517 TIME:   0.453 TIME LEFT:  2.00D  GRAD.:     0.228 HEAT: -100.2693
 CYCLE:   518 TIME:   0.449 TIME LEFT:  2.00D  GRAD.:     0.121 HEAT: -100.2693
 CYCLE:   519 TIME:   0.453 TIME LEFT:  2.00D  GRAD.:     0.151 HEAT: -100.2694
 CYCLE:   520 TIME:   0.453 TIME LEFT:  2.00D  GRAD.:     1.010 HEAT: -100.2689
 CYCLE:   521 TIME:   0.457 TIME LEFT:  2.00D  GRAD.:     0.208 HEAT: -100.2693
 CYCLE:   522 TIME:   0.449 TIME LEFT:  2.00D  GRAD.:     0.193 HEAT: -100.2694
 CYCLE:   523 TIME:   0.457 TIME LEFT:  2.00D  GRAD.:     0.547 HEAT: -100.2694
 CYCLE:   524 TIME:   0.453 TIME LEFT:  2.00D  GRAD.:     0.186 HEAT: -100.2695
 CYCLE:   525 TIME:   0.453 TIME LEFT:  2.00D  GRAD.:     0.154 HEAT: -100.2695
 CYCLE:   526 TIME:   0.457 TIME LEFT:  2.00D  GRAD.:     0.206 HEAT: -100.2693
 CYCLE:   527 TIME:   0.453 TIME LEFT:  2.00D  GRAD.:     0.139 HEAT: -100.2695
 CYCLE:   528 TIME:   0.457 TIME LEFT:  2.00D  GRAD.:     0.202 HEAT: -100.2695
 CYCLE:   529 TIME:   0.449 TIME LEFT:  2.00D  GRAD.:     0.147 HEAT: -100.2695
 CYCLE:   530 TIME:   0.457 TIME LEFT:  2.00D  GRAD.:     0.199 HEAT: -100.2694
 CYCLE:   531 TIME:   0.449 TIME LEFT:  2.00D  GRAD.:     0.168 HEAT: -100.2696
 CYCLE:   532 TIME:   0.453 TIME LEFT:  2.00D  GRAD.:     0.417 HEAT: -100.2695
 CYCLE:   533 TIME:   0.453 TIME LEFT:  2.00D  GRAD.:     0.236 HEAT: -100.2696
 CYCLE:   534 TIME:   0.457 TIME LEFT:  2.00D  GRAD.:     1.410 HEAT: -100.2692
 CYCLE:   535 TIME:   0.457 TIME LEFT:  2.00D  GRAD.:     0.360 HEAT: -100.2697
 CYCLE:   536 TIME:   0.457 TIME LEFT:  2.00D  GRAD.:     0.278 HEAT: -100.2698
 CYCLE:   537 TIME:   0.453 TIME LEFT:  2.00D  GRAD.:     0.279 HEAT: -100.2698
 CYCLE:   538 TIME:   0.453 TIME LEFT:  2.00D  GRAD.:     1.157 HEAT: -100.2657
 CYCLE:   539 TIME:   0.457 TIME LEFT:  2.00D  GRAD.:     0.215 HEAT: -100.2700
 CYCLE:   540 TIME:   0.453 TIME LEFT:  2.00D  GRAD.:     0.205 HEAT: -100.2699
 CYCLE:   541 TIME:   0.457 TIME LEFT:  2.00D  GRAD.:     5.077 HEAT: -100.2625
 CYCLE:   542 TIME:   0.457 TIME LEFT:  2.00D  GRAD.:     1.476 HEAT: -100.2659
 CYCLE:   543 TIME:   0.461 TIME LEFT:  2.00D  GRAD.:     2.533 HEAT: -100.2682
 CYCLE:   544 TIME:   0.453 TIME LEFT:  2.00D  GRAD.:     1.544 HEAT: -100.2690
 CYCLE:   545 TIME:   0.457 TIME LEFT:  2.00D  GRAD.:     0.648 HEAT: -100.2699
 CYCLE:   546 TIME:   0.453 TIME LEFT:  2.00D  GRAD.:     0.221 HEAT: -100.2701
 CYCLE:   547 TIME:   0.453 TIME LEFT:  2.00D  GRAD.:     0.236 HEAT: -100.2701
 CYCLE:   548 TIME:   0.453 TIME LEFT:  2.00D  GRAD.:     0.225 HEAT: -100.2701
 CYCLE:   549 TIME:   0.453 TIME LEFT:  2.00D  GRAD.:     0.484 HEAT: -100.2702
 CYCLE:   550 TIME:   0.453 TIME LEFT:  2.00D  GRAD.:     0.570 HEAT: -100.2704
 CYCLE:   551 TIME:   0.457 TIME LEFT:  2.00D  GRAD.:     0.945 HEAT: -100.2704
 CYCLE:   552 TIME:   0.453 TIME LEFT:  2.00D  GRAD.:     0.480 HEAT: -100.2709
 CYCLE:   553 TIME:   0.453 TIME LEFT:  2.00D  GRAD.:     0.304 HEAT: -100.2711
 CYCLE:   554 TIME:   0.457 TIME LEFT:  2.00D  GRAD.:     2.004 HEAT: -100.2695
 CYCLE:   555 TIME:   0.453 TIME LEFT:  2.00D  GRAD.:     0.491 HEAT: -100.2713
 CYCLE:   556 TIME:   0.453 TIME LEFT:  2.00D  GRAD.:     0.494 HEAT: -100.2714
 CYCLE:   557 TIME:   0.461 TIME LEFT:  2.00D  GRAD.:     0.780 HEAT: -100.2715
 CYCLE:   558 TIME:   0.453 TIME LEFT:  2.00D  GRAD.:     0.438 HEAT: -100.2719
 CYCLE:   559 TIME:   0.453 TIME LEFT:  2.00D  GRAD.:     0.362 HEAT: -100.2721
 CYCLE:   560 TIME:   0.453 TIME LEFT:  2.00D  GRAD.:     0.245 HEAT: -100.2723
 CYCLE:   561 TIME:   0.457 TIME LEFT:  2.00D  GRAD.:     1.007 HEAT: -100.2721
 CYCLE:   562 TIME:   0.457 TIME LEFT:  2.00D  GRAD.:     0.342 HEAT: -100.2723
 CYCLE:   563 TIME:   0.453 TIME LEFT:  2.00D  GRAD.:     0.175 HEAT: -100.2723
 CYCLE:   564 TIME:   0.453 TIME LEFT:  2.00D  GRAD.:     0.354 HEAT: -100.2723
 CYCLE:   565 TIME:   0.387 TIME LEFT:  2.00D  GRAD.:     0.195 HEAT: -100.2726
 CYCLE:   566 TIME:   0.289 TIME LEFT:  2.00D  GRAD.:     0.224 HEAT: -100.2726
 CYCLE:   567 TIME:   0.281 TIME LEFT:  2.00D  GRAD.:     0.179 HEAT: -100.2726
 CYCLE:   568 TIME:   0.285 TIME LEFT:  2.00D  GRAD.:     1.638 HEAT: -100.2684
 CYCLE:   569 TIME:   0.285 TIME LEFT:  2.00D  GRAD.:     0.289 HEAT: -100.2723
 CYCLE:   570 TIME:   0.281 TIME LEFT:  2.00D  GRAD.:     0.166 HEAT: -100.2724
 CYCLE:   571 TIME:   0.277 TIME LEFT:  2.00D  GRAD.:     0.168 HEAT: -100.2724
 CYCLE:   572 TIME:   0.293 TIME LEFT:  2.00D  GRAD.:     1.123 HEAT: -100.2701
 CYCLE:   573 TIME:   0.289 TIME LEFT:  2.00D  GRAD.:     0.245 HEAT: -100.2729
 CYCLE:   574 TIME:   0.285 TIME LEFT:  2.00D  GRAD.:     0.208 HEAT: -100.2729
 CYCLE:   575 TIME:   0.570 TIME LEFT:  2.00D  GRAD.:     1.824 HEAT: -100.2707
 CYCLE:   576 TIME:   0.281 TIME LEFT:  2.00D  GRAD.:     0.299 HEAT: -100.2730
 CYCLE:   577 TIME:   0.281 TIME LEFT:  2.00D  GRAD.:     0.291 HEAT: -100.2731
 CYCLE:   578 TIME:   0.289 TIME LEFT:  2.00D  GRAD.:     0.340 HEAT: -100.2732
 CYCLE:   579 TIME:   0.281 TIME LEFT:  2.00D  GRAD.:     0.240 HEAT: -100.2733
 CYCLE:   580 TIME:   0.281 TIME LEFT:  2.00D  GRAD.:     0.228 HEAT: -100.2733
 CYCLE:   581 TIME:   0.285 TIME LEFT:  2.00D  GRAD.:     0.422 HEAT: -100.2727
 CYCLE:   582 TIME:   0.285 TIME LEFT:  2.00D  GRAD.:     0.149 HEAT: -100.2737
 CYCLE:   583 TIME:   0.281 TIME LEFT:  2.00D  GRAD.:     0.133 HEAT: -100.2737
 CYCLE:   584 TIME:   0.281 TIME LEFT:  2.00D  GRAD.:     0.268 HEAT: -100.2736
 CYCLE:   585 TIME:   0.285 TIME LEFT:  2.00D  GRAD.:     0.185 HEAT: -100.2738
 CYCLE:   586 TIME:   0.289 TIME LEFT:  2.00D  GRAD.:     1.445 HEAT: -100.2700
 CYCLE:   587 TIME:   0.285 TIME LEFT:  2.00D  GRAD.:     0.361 HEAT: -100.2743
 CYCLE:   588 TIME:   0.277 TIME LEFT:  2.00D  GRAD.:     0.271 HEAT: -100.2745
 CYCLE:   589 TIME:   0.281 TIME LEFT:  2.00D  GRAD.:     0.287 HEAT: -100.2745
 CYCLE:   590 TIME:   0.285 TIME LEFT:  2.00D  GRAD.:     0.304 HEAT: -100.2746
 CYCLE:   591 TIME:   0.285 TIME LEFT:  2.00D  GRAD.:     0.279 HEAT: -100.2745
 CYCLE:   592 TIME:   0.285 TIME LEFT:  2.00D  GRAD.:     0.152 HEAT: -100.2748
 CYCLE:   593 TIME:   0.285 TIME LEFT:  2.00D  GRAD.:     0.542 HEAT: -100.2744
 CYCLE:   594 TIME:   0.293 TIME LEFT:  2.00D  GRAD.:     0.199 HEAT: -100.2748
 CYCLE:   595 TIME:   0.285 TIME LEFT:  2.00D  GRAD.:     0.214 HEAT: -100.2748
 CYCLE:   596 TIME:   0.289 TIME LEFT:  2.00D  GRAD.:     0.131 HEAT: -100.2749
 CYCLE:   597 TIME:   0.293 TIME LEFT:  2.00D  GRAD.:     2.079 HEAT: -100.2706
 CYCLE:   598 TIME:   0.289 TIME LEFT:  2.00D  GRAD.:     1.578 HEAT: -100.2735
 CYCLE:   599 TIME:   0.289 TIME LEFT:  2.00D  GRAD.:     0.613 HEAT: -100.2751
 CYCLE:   600 TIME:   0.281 TIME LEFT:  2.00D  GRAD.:     0.463 HEAT: -100.2754
 CYCLE:   601 TIME:   0.285 TIME LEFT:  2.00D  GRAD.:     0.846 HEAT: -100.2753
 CYCLE:   602 TIME:   0.281 TIME LEFT:  2.00D  GRAD.:     0.485 HEAT: -100.2756
 CYCLE:   603 TIME:   0.285 TIME LEFT:  2.00D  GRAD.:     0.341 HEAT: -100.2756
 CYCLE:   604 TIME:   0.285 TIME LEFT:  2.00D  GRAD.:     0.342 HEAT: -100.2757
 CYCLE:   605 TIME:   0.281 TIME LEFT:  2.00D  GRAD.:     0.698 HEAT: -100.2751
 CYCLE:   606 TIME:   0.285 TIME LEFT:  2.00D  GRAD.:     0.262 HEAT: -100.2759
 CYCLE:   607 TIME:   0.277 TIME LEFT:  2.00D  GRAD.:     0.248 HEAT: -100.2759
 CYCLE:   608 TIME:   0.293 TIME LEFT:  2.00D  GRAD.:     3.414 HEAT: -100.2673
 CYCLE:   609 TIME:   0.289 TIME LEFT:  2.00D  GRAD.:     0.536 HEAT: -100.2757
 CYCLE:   610 TIME:   0.285 TIME LEFT:  2.00D  GRAD.:     0.314 HEAT: -100.2760
 CYCLE:   611 TIME:   0.281 TIME LEFT:  2.00D  GRAD.:     0.337 HEAT: -100.2760
 CYCLE:   612 TIME:   0.281 TIME LEFT:  2.00D  GRAD.:     0.363 HEAT: -100.2761
 CYCLE:   613 TIME:   0.281 TIME LEFT:  2.00D  GRAD.:     0.397 HEAT: -100.2760
 CYCLE:   614 TIME:   0.293 TIME LEFT:  2.00D  GRAD.:     0.249 HEAT: -100.2761
 CYCLE:   615 TIME:   0.281 TIME LEFT:  2.00D  GRAD.:     0.184 HEAT: -100.2761
 CYCLE:   616 TIME:   0.426 TIME LEFT:  2.00D  GRAD.:     0.966 HEAT: -100.2733
 CYCLE:   617 TIME:   0.457 TIME LEFT:  2.00D  GRAD.:     0.174 HEAT: -100.2761
 CYCLE:   618 TIME:   0.453 TIME LEFT:  2.00D  GRAD.:     0.136 HEAT: -100.2761
 CYCLE:   619 TIME:   0.453 TIME LEFT:  2.00D  GRAD.:     0.123 HEAT: -100.2761
 CYCLE:   620 TIME:   0.457 TIME LEFT:  2.00D  GRAD.:     0.904 HEAT: -100.2751
 CYCLE:   621 TIME:   0.457 TIME LEFT:  2.00D  GRAD.:     0.183 HEAT: -100.2759
 CYCLE:   622 TIME:   0.457 TIME LEFT:  2.00D  GRAD.:     0.183 HEAT: -100.2759
 CYCLE:   623 TIME:   0.449 TIME LEFT:  2.00D  GRAD.:     0.198 HEAT: -100.2759
 CYCLE:   624 TIME:   0.453 TIME LEFT:  2.00D  GRAD.:     0.167 HEAT: -100.2760
 CYCLE:   625 TIME:   0.453 TIME LEFT:  2.00D  GRAD.:     0.173 HEAT: -100.2760
 CYCLE:   626 TIME:   0.453 TIME LEFT:  2.00D  GRAD.:     0.090 HEAT: -100.2760


 HEAT OF FORMATION IS ESSENTIALLY STATIONARY

 -------------------------------------------------------------------------------
 AUX LARGE CHARGE=0 EXCITED PRECISE PM7
 PCDM, first excited state



     GEOMETRY OPTIMISED USING EIGENVECTOR FOLLOWING (EF).     
     SCF FIELD WAS ACHIEVED                                   


                              PM7 CALCULATION
                                                       MOPAC v22.1.1 Windows
                                                       Tue Jun  4 17:13:27 2024




          FINAL HEAT OF FORMATION =       -100.27597 KCAL/MOL =    -419.55465 KJ/MOL


          COSMO AREA              =        266.04 SQUARE ANGSTROMS
          COSMO VOLUME            =        285.52 CUBIC ANGSTROMS

          GRADIENT NORM           =          0.09025          =       0.01595 PER ATOM
          NO. OF FILLED LEVELS    =         45
          AND NO. OF OPEN LEVELS  =          2
          MOLECULAR WEIGHT        =        237.2548         POINT GROUP:  C1  

          MOLECULAR DIMENSIONS (Angstroms)

            Atom       Atom       Distance
            H    30    H    22    10.45447
            H    28    H    27     6.84420
            H    21    H    18     4.17389


          SCF CALCULATIONS        =        647
 
          WALL-CLOCK TIME         =          4 MINUTES AND 36.719 SECONDS
          COMPUTATION TIME        =          5 MINUTES AND 54.297 SECONDS




   ATOM   CHEMICAL          X               Y               Z
  NUMBER   SYMBOL      (ANGSTROMS)     (ANGSTROMS)     (ANGSTROMS)
 
     1       N         14.87278858  *  -7.80598293  *  -1.56915689  *
     2       C         14.06814797  *  -8.32214005  *  -2.59337835  *
     3       C         14.30043805  *  -7.38209993  *  -0.36293495  *
     4       C         12.70151147  *  -8.29099367  *  -2.45807301  *
     5       C         12.93325834  *  -7.35477448  *  -0.23759666  *
     6       C         12.10799502  *  -7.79847920  *  -1.28465574  *
     7       C         16.25030119  *  -8.03638889  *  -1.61556546  *
     8       C         16.84146408  *  -9.29181147  *  -1.11281889  *
     9       C         17.11499059  *  -6.96931793  *  -2.18441379  *
    10       O         16.28516382  * -10.15473820  *  -0.48778040  *
    11       O         17.36788682  *  -6.80544641  *  -3.34570101  *
    12       O         17.56265781  *  -6.19552243  *  -1.17268356  *
    13       O         18.14622507  *  -9.33256398  *  -1.45854055  *
    14       C         18.46644609  *  -5.13725524  *  -1.51552794  *
    15       C         19.85128000  *  -5.70688207  *  -1.76306034  *
    16       C         18.87739958  * -10.50067066  *  -1.03828311  *
    17       C         20.28496925  * -10.23568492  *  -1.54238101  *
    18       H         14.58039522  *  -8.69836650  *  -3.47502409  *
    19       H         14.98620612  *  -7.06647829  *   0.41877118  *
    20       H         12.07075818  *  -8.65806146  *  -3.26706049  *
    21       H         12.48287028  *  -6.99287008  *   0.68580228  *
    22       H         11.03295641  *  -7.77318660  *  -1.18274598  *
    23       H         18.07253740  *  -4.58067237  *  -2.38496800  *
    24       H         18.41277311  *  -4.51150855  *  -0.60404585  *
    25       H         20.17033436  *  -6.35753409  *  -0.93876894  *
    26       H         19.87504711  *  -6.31253875  *  -2.68113409  *
    27       H         20.59832355  *  -4.91316590  *  -1.87286378  *
    28       H         18.40898215  * -11.38718686  *  -1.50113725  *
    29       H         18.81557499  * -10.57601259  *   0.06147067  *
    30       H         20.95097540  * -11.07635113  *  -1.31643622  *
    31       H         20.29650555  * -10.07843214  *  -2.63038357  *
    32       H         20.71221316  *  -9.33293581  *  -1.08638114  *

                             CARTESIAN COORDINATES

   1    N       14.872788579    -7.805982931    -1.569156886
   2    C       14.068147965    -8.322140046    -2.593378350
   3    C       14.300438048    -7.382099930    -0.362934955
   4    C       12.701511470    -8.290993667    -2.458073011
   5    C       12.933258339    -7.354774480    -0.237596662
   6    C       12.107995024    -7.798479205    -1.284655737
   7    C       16.250301193    -8.036388894    -1.615565456
   8    C       16.841464076    -9.291811473    -1.112818894
   9    C       17.114990594    -6.969317931    -2.184413788
  10    O       16.285163821   -10.154738203    -0.487780400
  11    O       17.367886818    -6.805446406    -3.345701007
  12    O       17.562657812    -6.195522427    -1.172683557
  13    O       18.146225073    -9.332563978    -1.458540547
  14    C       18.466446095    -5.137255239    -1.515527940
  15    C       19.851280003    -5.706882066    -1.763060339
  16    C       18.877399582   -10.500670659    -1.038283106
  17    C       20.284969247   -10.235684920    -1.542381012
  18    H       14.580395218    -8.698366505    -3.475024088
  19    H       14.986206124    -7.066478289     0.418771183
  20    H       12.070758177    -8.658061465    -3.267060490
  21    H       12.482870281    -6.992870083     0.685802279
  22    H       11.032956409    -7.773186602    -1.182745977
  23    H       18.072537396    -4.580672372    -2.384968005
  24    H       18.412773111    -4.511508553    -0.604045852
  25    H       20.170334361    -6.357534087    -0.938768940
  26    H       19.875047105    -6.312538745    -2.681134088
  27    H       20.598323550    -4.913165901    -1.872863777
  28    H       18.408982150   -11.387186863    -1.501137247
  29    H       18.815574986   -10.576012590     0.061470673
  30    H       20.950975400   -11.076351133    -1.316436220
  31    H       20.296505551   -10.078432137    -2.630383565
  32    H       20.712213163    -9.332935809    -1.086381144


           Empirical Formula: C12 H15 N O4  =    32 atoms



      MOLECULAR POINT GROUP   :   C1  


                  EIGENVALUES  
 -37.45321 -31.78477 -31.67819 -30.49269 -30.37882 -29.05814 -27.72711 -27.16909
 -26.39501 -25.69905 -23.00356 -22.53961 -21.94334 -21.54249 -21.14861 -20.08195
 -18.31047 -18.16670 -17.06780 -16.82409 -16.69591 -16.38793 -16.33819 -15.80518
 -15.47548 -15.17921 -14.84680 -14.59823 -14.51259 -14.33450 -13.88352 -13.71427
 -13.61697 -13.08187 -12.84663 -12.82516 -12.44549 -12.33965 -12.26067 -11.47266
 -11.40128 -11.29392 -11.25862 -10.24932 -10.23747  -6.28970  -3.52970   0.30444
   0.44426   0.86320   1.04946   1.39659   1.94845   2.21417   2.78564   3.24543
   3.50862   3.72009   3.93717   4.10096   4.14471   4.44146   4.82417   4.96336
   5.06546   5.12391   5.13333   5.14768   5.34463   5.38598   5.45571   5.47981
   5.60859   5.61692   5.63201   5.73483   5.79229   5.87706   6.18912   6.32869
   6.58912   6.63030   6.72512


              NET ATOMIC CHARGES AND DIPOLE CONTRIBUTIONS

  ATOM NO.   TYPE          CHARGE      No. of ELECS.   s-Pop       p-Pop       
    1          N          -0.241059        5.2411     1.51121     3.72985
    2          C          -0.065465        4.0655     1.07971     2.98576
    3          C          -0.060377        4.0604     1.07987     2.98051
    4          C          -0.105430        4.1054     1.08080     3.02463
    5          C          -0.107754        4.1078     1.08071     3.02704
    6          C          -0.270756        4.2708     1.06527     3.20549
    7          C           0.026813        3.9732     1.12178     2.85141
    8          C           0.535565        3.4644     1.10495     2.35948
    9          C           0.586396        3.4136     1.10762     2.30598
   10          O          -0.444840        6.4448     1.87840     4.56644
   11          O          -0.442379        6.4424     1.87798     4.56440
   12          O          -0.402994        6.4030     1.86919     4.53380
   13          O          -0.407554        6.4076     1.86893     4.53862
   14          C           0.011457        3.9885     1.09104     2.89750
   15          C          -0.483581        4.4836     1.05676     3.42682
   16          C           0.013335        3.9867     1.09184     2.89483
   17          C          -0.463171        4.4632     1.05430     3.40887
   18          H           0.170581        0.8294     0.82942
   19          H           0.168696        0.8313     0.83130
   20          H           0.156383        0.8436     0.84362
   21          H           0.155761        0.8442     0.84424
   22          H           0.152446        0.8476     0.84755
   23          H           0.140090        0.8599     0.85991
   24          H           0.142434        0.8576     0.85757
   25          H           0.159367        0.8406     0.84063
   26          H           0.169846        0.8302     0.83015
   27          H           0.153247        0.8468     0.84675
   28          H           0.138309        0.8617     0.86169
   29          H           0.136862        0.8631     0.86314
   30          H           0.155590        0.8444     0.84441
   31          H           0.164415        0.8356     0.83559
   32          H           0.157767        0.8422     0.84223
 DIPOLE           X         Y         Z       TOTAL
 POINT-CHG.     2.856     0.959     0.747     3.104
 HYBRID         0.254    -0.209     0.006     0.329
 SUM            3.110     0.751     0.753     3.286


          ATOMIC ORBITAL ELECTRON POPULATIONS

     Atom    s        px        py        pz   
    1  N   1.51121   1.05598   1.49791   1.17596
    2  C   1.07971   0.95576   1.07944   0.95056
    3  C   1.07987   1.00288   1.07705   0.90058
    4  C   1.08080   0.99469   0.98674   1.04321
    5  C   1.08071   0.98214   0.98797   1.05694
    6  C   1.06527   1.07724   1.12712   1.00113
    7  C   1.12178   0.87146   0.99375   0.98619
    8  C   1.10495   0.77390   0.82798   0.75759
    9  C   1.10762   0.73637   0.77652   0.79309
   10  O   1.87840   1.69377   1.45563   1.41704
   11  O   1.87798   1.59226   1.69969   1.27244
   12  O   1.86919   1.61051   1.48202   1.44127
   13  O   1.86893   1.31698   1.49131   1.73033
   14  C   1.09104   0.89229   0.87846   1.12675
   15  C   1.05676   1.06238   1.16698   1.19746
   16  C   1.09184   0.91375   0.88540   1.09568
   17  C   1.05430   1.05017   1.17648   1.18221
   18  H   0.82942
   19  H   0.83130
   20  H   0.84362
   21  H   0.84424
   22  H   0.84755
   23  H   0.85991
   24  H   0.85757
   25  H   0.84063
   26  H   0.83015
   27  H   0.84675
   28  H   0.86169
   29  H   0.86314
   30  H   0.84441
   31  H   0.83559
   32  H   0.84223

 **********************
 *                    *
 * JOB ENDED NORMALLY *
 *                    *
 **********************



 TOTAL JOB TIME:           276.73 SECONDS

 == MOPAC DONE ==
