

 Parallel Execution: Process Information
 ==============================================================================
 Rank   Node Name                              NodeID   MyNodeRank  NodeMaster
    0   ubuntu-kch                                0          0          0
    1   ubuntu-kch                                0          1         -1
    2   ubuntu-kch                                0          2         -1
    3   ubuntu-kch                                0          3         -1
 ==============================================================================


May use up to 7570MB of RAM as shared memory on node 0

 *******************************************************************************
 *                                                                             *
 *  --------------------------------                                           *
 *   Amsterdam Modeling Suite (AMS)              2020.202                      *
 *  --------------------------------                                           *
 *                                               r90167 2020-12-05             *
 *                                                                             *
 *                                                                             *
 *                              =================                              *
 *                              |               |                              *
 *                              |     A M S     |                              *
 *                              |               |                              *
 *                              =================                              *
 *                                                                             *
 *                                                                             *
 *   Online information and documentation:  https://www.scm.com/support/       *
 *   E-mail:  support@scm.com   info@scm.com                                   *
 *                                                                             *
 *   Scientific publications using AMS results must be properly referenced     *
 *   See the User Manuals (or the web site) for recommended citations          *
 *   The terms and conditions of the End User License Agreement apply to       *
 *   the use of AMS, https://www.scm.com/license-terms/                        *
 *                                                                             *
 **********************  x86_64_linux_intel / intelmpi  ************************
 
 Licensed to: Dr. Miroslav Ilias / Matej Bel University, Department Chemistry, Fac. Natural Sciences / Banska Bystrica / SLOVAKIA
 SCM User ID: u17848
  
 AMS 2020.202  RunTime: Jan30-2021 00:54:39  Nodes: 1  Procs: 4

 AMS jobname: ams
 AMS jobid  : 1792836913

 Start   directory: /home/milias/work/projects/open-collection/theoretical_chemistry/projects/nmr_diplomovky/reference_compounds/durene/ams/geometry_optimization/m06-2x_tz2p/tmp.milias.403064.0.noindex/
 Results directory: /home/milias/work/projects/open-collection/theoretical_chemistry/projects/nmr_diplomovky/reference_compounds/durene/ams/geometry_optimization/m06-2x_tz2p/Durene.geoptsymm_freq_m06-2x_tz2p_cosmo-chcl3.results/
 Scratch directory: /tmp/amstmp_ams_kid0.1792836913/


 Communication costs MPI_COMM_WORLD:      0.241 usec per message,   0.0033 usec per 8-byte item
 Communication costs for intra-node:      0.295 usec per message,   0.0033 usec per 8-byte item

 RNG seed: -519610661 -877746029 -907911418 -1388246121 218585154 -385709418 1216285188 1804932230



                        ********************************************************************
                        *  ADF 2020.202  RunTime: Jan30-2021 00:54:39  Nodes: 1  Procs: 4  *
                        ********************************************************************
  
       ***************************
       *  GEOMETRY OPTIMIZATION  *
       ***************************

Optimization Method                    Quasi Newton
Optimization Coordinates               Delocalized Coordinates
Optimize lattice                       F
 
 ------------------------------------------------------
 Convergence criteria (Hartree,Angstrom)
 ------------------------------------------------------
 Maximum gradient               0.001000000000
 Maximum rms gradient           0.000666666667
 Maximum step allowed           0.001000000000
 Maximum rms step allowed       0.000666666667
 Maximum energy change allowe   0.000240000000
 Maximum stress energy allowe   0.000500000000
 
Initial model Hessian                  Automatic Hessian
 
------------------------------------
Quasi-Newton Optimizer Parameters
------------------------------------
Hessian Update Method                  BFGS
Maximum number of steps                  250
First GDIIS cycle                          0
Maximum GDIIS vectors                      0
Trust radius (bohr)                        0.200000
Trust radius varies                        T
Constraints converged at all steps         T
Use projector                              T
 
 Rigid motions settings for: old optimizer
 Atomic rotations (x,y,z):     T T T
 Atomic translations (x,y,z):  T T T
 Tolerance:                   1.000000000000000E-006
 
--------
Geometry
--------
Atoms
  Index Symbol   x (angstrom)   y (angstrom)   z (angstrom)
      1      C    -0.00000000    -0.70689885    -1.23410370       adf.R=1.700
      2      C     0.00000000     0.70689885    -1.23410370       adf.R=1.700
      3      C    -0.00000000    -0.70689885     1.23410370       adf.R=1.700
      4      C     0.00000000     0.70689885     1.23410370       adf.R=1.700
      5      C    -0.00000000    -1.37608567     0.00000000       adf.R=1.700
      6      C     0.00000000     1.37608567     0.00000000       adf.R=1.700
      7      C    -0.00000000    -1.49429461    -2.53118736       adf.R=1.700
      8      C     0.00000000     1.49429461    -2.53118736       adf.R=1.700
      9      C    -0.00000000    -1.49429461     2.53118736       adf.R=1.700
     10      C     0.00000000     1.49429461     2.53118736       adf.R=1.700
     11      H    -0.00000000    -2.46745335     0.00000000       adf.R=1.350
     12      H     0.00000000     2.46745335     0.00000000       adf.R=1.350
     13      H    -0.00000000    -2.57277166    -2.33696307       adf.R=1.350
     14      H    -0.88196225    -1.26363776    -3.14653416       adf.R=1.350
     15      H     0.88196225    -1.26363776    -3.14653416       adf.R=1.350
     16      H     0.00000000     2.57277166    -2.33696307       adf.R=1.350
     17      H     0.88196225     1.26363776    -3.14653416       adf.R=1.350
     18      H    -0.88196225     1.26363776    -3.14653416       adf.R=1.350
     19      H    -0.88196225    -1.26363776     3.14653416       adf.R=1.350
     20      H    -0.00000000    -2.57277166     2.33696307       adf.R=1.350
     21      H     0.88196225    -1.26363776     3.14653416       adf.R=1.350
     22      H     0.88196225     1.26363776     3.14653416       adf.R=1.350
     23      H     0.00000000     2.57277166     2.33696307       adf.R=1.350
     24      H    -0.88196225     1.26363776     3.14653416       adf.R=1.350
 
Total System Charge             0.00000
Bonding info available!
 
 
----------------
ADF Engine Input
----------------
 
 Basis
 Type TZ2P
 Core None
 End
 XC
 MetaHybrid M06-2X
 End
 Relativity
 Level None
 End
 Solvation
 Surf Delley
 Solv name=Chloroform cav0=0.0 cav1=0.0067639
 Charged method=CONJ
 C-Mat POT
 SCF VAR ALL
 CSMRSP
 End
 NumericalQuality Good
 

 Title: *** (NO TITLE) ***

Number of symmetry operators: 8
Schoenflies symbol:           D(2H)
 Using automatic Hessian for delocalized coordinates.
 *** GOStep1 ***

 SOLVATION
-------------------------------------------

  The Delley construction of COSMO surface surface is calculated

       Division Level for Surface Triangles (NDIV)                  3
       Final Division Level for Triangles (NFDIV)                   1
       Radius of the Solvent (RSOL)                           3.17000 angstr
  Dielectric Constant (EPSL)                                  4.80000

       COSMO equation is solved iteratively-               conjugate-gradient

       Maximun of Iterations for Charges (NCIX)                  1000
       Criterion for Charge convergence (CCNV)                1.0E-08

  COSMO charges included variationally in SCF

       COSMO included at every SCF cycle

  Geometry-dependent empirical factor                         0.00000

  C-Matrix calculated in cspmtx

  In cspmtx, C-Matrix calculated using fitted potential

-------------------------------------------

 Numerically sensitive XC: Boost radial integration grid.
 Radial integration boost factor:   3.00000000000000     


 -------------------------------------------
  COSMO surface
  Area             =          707.477
  Volume           =         1307.773
  Number of Points =         1830
 -------------------------------------------



 ======================
 RI Hartree-Fock Scheme
 ======================
  
 Fit Set Quality     : GOOD
 Integration Quality : GOOD
 Threshold Quality   : GOOD
 Response Quality    : DEFAULT
 Is Range Separated  :  F
 
 RIHartreeFock Dependency: number of modified vectors:          26
 cosmo_calcen: 0.5 (esolb+esolc) (Hartrees) =   -0.004058

 Solvation energy (screening term,uncorrected) =     -2.546387 kcal/mol

 Solvation energy (dispersion and cavitation terms) =      1.060850 kcal/mol
 Solvation Energy Contributions (Hartrees)
          esola   esolb+esolc
     0.00405793   -0.00811585
 esol last cycle   -0.00405793
  
 Hartree-Fock exchange energy:   -56.7434887806887     
 cosmo_calcen: 0.5 (esolb+esolc) (Hartrees) =   -0.004058

 Solvation energy (screening term,uncorrected) =     -2.546390 kcal/mol

 Solvation energy (dispersion and cavitation terms) =      1.060850 kcal/mol
 Solvation Energy Contributions (Hartrees)
          esola   esolb+esolc
     0.00405793   -0.00811586
 esol last cycle   -0.00405793

 Energy gradients wrt nuclear displacements
 ==========================================

     Atom      Cartesian (a.u./angstrom)
                 X         Y         Z
 ----------------------------------------
     1 C     0.000000 -0.007073 -0.006946
     2 C    -0.000000  0.007073 -0.006946
     3 C    -0.000000 -0.007073  0.006946
     4 C     0.000000  0.007073  0.006946
     5 C     0.000000 -0.009321 -0.000000
     6 C    -0.000000  0.009321 -0.000000
     7 C    -0.000000 -0.002038  0.000989
     8 C     0.000000  0.002038  0.000989
     9 C     0.000000 -0.002038 -0.000989
    10 C    -0.000000  0.002038 -0.000989
    11 H     0.000000 -0.008780  0.000000
    12 H    -0.000000  0.008780  0.000000
    13 H     0.000000 -0.009648  0.000021
    14 H    -0.007530  0.000160 -0.007121
    15 H     0.007530  0.000160 -0.007121
    16 H     0.000000  0.009648  0.000021
    17 H     0.007530 -0.000160 -0.007121
    18 H    -0.007530 -0.000160 -0.007121
    19 H    -0.007530  0.000160  0.007121
    20 H     0.000000 -0.009648 -0.000021
    21 H     0.007530  0.000160  0.007121
    22 H     0.007530 -0.000160  0.007121
    23 H     0.000000  0.009648 -0.000021
    24 H    -0.007530 -0.000160  0.007121
 ----------------------------------------
 Mulliken charges used for AMS results%charges...
 
----------------------------------------------------------------------
Geometry Convergence after Step   1       (Hartree/Angstrom,Angstrom)
----------------------------------------------------------------------
current energy                               -6.97114179 Hartree
energy change                      -6.97114179     0.00024000    F
constrained gradient max            0.00964780     0.00100000    F
constrained gradient rms            0.00523527     0.00066667    F
gradient max                        0.00964780
gradient rms                        0.00523527
cart. step max                      0.04669909     0.00100000    F
cart. step rms                      0.02093109     0.00066667    F
 
 
--------
Geometry
--------
Atoms
  Index Symbol   x (angstrom)   y (angstrom)   z (angstrom)
      1      C    -0.00000000    -0.69980687    -1.22089159       adf.R=1.700
      2      C     0.00000000     0.69980687    -1.22089159       adf.R=1.700
      3      C    -0.00000000    -0.69980687     1.22089159       adf.R=1.700
      4      C     0.00000000     0.69980687     1.22089159       adf.R=1.700
      5      C    -0.00000000    -1.36960705     0.00000000       adf.R=1.700
      6      C     0.00000000     1.36960705     0.00000000       adf.R=1.700
      7      C    -0.00000000    -1.46280097    -2.52147893       adf.R=1.700
      8      C     0.00000000     1.46280097    -2.52147893       adf.R=1.700
      9      C    -0.00000000    -1.46280097     2.52147893       adf.R=1.700
     10      C     0.00000000     1.46280097     2.52147893       adf.R=1.700
     11      H    -0.00000000    -2.45605151     0.00000000       adf.R=1.350
     12      H     0.00000000     2.45605151     0.00000000       adf.R=1.350
     13      H    -0.00000000    -2.53848557    -2.34246678       adf.R=1.350
     14      H    -0.87873826    -1.21693867    -3.12531129       adf.R=1.350
     15      H     0.87873826    -1.21693867    -3.12531129       adf.R=1.350
     16      H     0.00000000     2.53848557    -2.34246678       adf.R=1.350
     17      H     0.87873826     1.21693867    -3.12531129       adf.R=1.350
     18      H    -0.87873826     1.21693867    -3.12531129       adf.R=1.350
     19      H    -0.87873826    -1.21693867     3.12531129       adf.R=1.350
     20      H    -0.00000000    -2.53848557     2.34246678       adf.R=1.350
     21      H     0.87873826    -1.21693867     3.12531129       adf.R=1.350
     22      H     0.87873826     1.21693867     3.12531129       adf.R=1.350
     23      H     0.00000000     2.53848557     2.34246678       adf.R=1.350
     24      H    -0.87873826     1.21693867     3.12531129       adf.R=1.350
 
Total System Charge             0.00000
Bonding info available!
 
 *** GOStep2 ***

 SOLVATION
-------------------------------------------

  The Delley construction of COSMO surface surface is calculated

       Division Level for Surface Triangles (NDIV)                  3
       Final Division Level for Triangles (NFDIV)                   1
       Radius of the Solvent (RSOL)                           3.17000 angstr
  Dielectric Constant (EPSL)                                  4.80000

       COSMO equation is solved iteratively-               conjugate-gradient

       Maximun of Iterations for Charges (NCIX)                  1000
       Criterion for Charge convergence (CCNV)                1.0E-08

  COSMO charges included variationally in SCF

       COSMO included at every SCF cycle

  Geometry-dependent empirical factor                         0.00000

  C-Matrix calculated in cspmtx

  In cspmtx, C-Matrix calculated using fitted potential

-------------------------------------------

 Numerically sensitive XC: Boost radial integration grid.
 Radial integration boost factor:   3.00000000000000     


 -------------------------------------------
  COSMO surface
  Area             =          700.344
  Volume           =         1293.281
  Number of Points =         1838
 -------------------------------------------



 ======================
 RI Hartree-Fock Scheme
 ======================
  
 Fit Set Quality     : GOOD
 Integration Quality : GOOD
 Threshold Quality   : GOOD
 Response Quality    : DEFAULT
 Is Range Separated  :  F
 
 RIHartreeFock Dependency: number of modified vectors:          26
 cosmo_calcen: 0.5 (esolb+esolc) (Hartrees) =   -0.003826

 Solvation energy (screening term,uncorrected) =     -2.401159 kcal/mol

 Solvation energy (dispersion and cavitation terms) =      1.050155 kcal/mol
 Solvation Energy Contributions (Hartrees)
          esola   esolb+esolc
     0.00382649   -0.00765298
 esol last cycle   -0.00382649
  
 Hartree-Fock exchange energy:   -56.8376593515312     
 cosmo_calcen: 0.5 (esolb+esolc) (Hartrees) =   -0.003826

 Solvation energy (screening term,uncorrected) =     -2.401159 kcal/mol

 Solvation energy (dispersion and cavitation terms) =      1.050155 kcal/mol
 Solvation Energy Contributions (Hartrees)
          esola   esolb+esolc
     0.00382649   -0.00765298
 esol last cycle   -0.00382649

 Energy gradients wrt nuclear displacements
 ==========================================

     Atom      Cartesian (a.u./angstrom)
                 X         Y         Z
 ----------------------------------------
     1 C     0.000000  0.001280  0.002243
     2 C    -0.000000 -0.001280  0.002243
     3 C    -0.000000  0.001280 -0.002243
     4 C     0.000000 -0.001280 -0.002243
     5 C     0.000000  0.001411 -0.000000
     6 C    -0.000000 -0.001411 -0.000000
     7 C    -0.000000  0.000705 -0.000401
     8 C     0.000000 -0.000705 -0.000401
     9 C     0.000000  0.000705  0.000401
    10 C    -0.000000 -0.000705  0.000401
    11 H     0.000000 -0.002305 -0.000000
    12 H    -0.000000  0.002305 -0.000000
    13 H    -0.000000 -0.002912  0.000446
    14 H    -0.002608  0.000429 -0.002080
    15 H     0.002608  0.000429 -0.002080
    16 H     0.000000  0.002912  0.000446
    17 H     0.002608 -0.000429 -0.002080
    18 H    -0.002608 -0.000429 -0.002080
    19 H    -0.002608  0.000429  0.002080
    20 H     0.000000 -0.002912 -0.000446
    21 H     0.002608  0.000429  0.002080
    22 H     0.002608 -0.000429  0.002080
    23 H    -0.000000  0.002912 -0.000446
    24 H    -0.002608 -0.000429  0.002080
 ----------------------------------------
 Mulliken charges used for AMS results%charges...

 dE(predicted):    -0.18734E-02, dE(actual):    -0.21821E-02, Trust radius:    0.200000, all in a.u.
 
----------------------------------------------------------------------
Geometry Convergence after Step   2       (Hartree/Angstrom,Angstrom)
----------------------------------------------------------------------
current energy                               -6.97332394 Hartree
energy change                      -0.00218215     0.00024000    F
constrained gradient max            0.00291244     0.00100000    F
constrained gradient rms            0.00153282     0.00066667    F
gradient max                        0.00291244
gradient rms                        0.00153282
cart. step max                      0.00731354     0.00100000    F
cart. step rms                      0.00323425     0.00066667    F
 
 
--------
Geometry
--------
Atoms
  Index Symbol   x (angstrom)   y (angstrom)   z (angstrom)
      1      C    -0.00000000    -0.69946991    -1.21940917       adf.R=1.700
      2      C     0.00000000     0.69946991    -1.21940917       adf.R=1.700
      3      C    -0.00000000    -0.69946991     1.21940917       adf.R=1.700
      4      C     0.00000000     0.69946991     1.21940917       adf.R=1.700
      5      C    -0.00000000    -1.36908993     0.00000000       adf.R=1.700
      6      C     0.00000000     1.36908993     0.00000000       adf.R=1.700
      7      C    -0.00000000    -1.46340491    -2.51604540       adf.R=1.700
      8      C     0.00000000     1.46340491    -2.51604540       adf.R=1.700
      9      C    -0.00000000    -1.46340491     2.51604540       adf.R=1.700
     10      C     0.00000000     1.46340491     2.51604540       adf.R=1.700
     11      H    -0.00000000    -2.45392253     0.00000000       adf.R=1.350
     12      H     0.00000000     2.45392253     0.00000000       adf.R=1.350
     13      H    -0.00000000    -2.53689077    -2.33627436       adf.R=1.350
     14      H    -0.87705300    -1.21720556    -3.11799775       adf.R=1.350
     15      H     0.87705300    -1.21720556    -3.11799775       adf.R=1.350
     16      H     0.00000000     2.53689077    -2.33627436       adf.R=1.350
     17      H     0.87705300     1.21720556    -3.11799775       adf.R=1.350
     18      H    -0.87705300     1.21720556    -3.11799775       adf.R=1.350
     19      H    -0.87705300    -1.21720556     3.11799775       adf.R=1.350
     20      H    -0.00000000    -2.53689077     2.33627436       adf.R=1.350
     21      H     0.87705300    -1.21720556     3.11799775       adf.R=1.350
     22      H     0.87705300     1.21720556     3.11799775       adf.R=1.350
     23      H     0.00000000     2.53689077     2.33627436       adf.R=1.350
     24      H    -0.87705300     1.21720556     3.11799775       adf.R=1.350
 
Total System Charge             0.00000
Bonding info available!
 
 *** GOStep3 ***

 SOLVATION
-------------------------------------------

  The Delley construction of COSMO surface surface is calculated

       Division Level for Surface Triangles (NDIV)                  3
       Final Division Level for Triangles (NFDIV)                   1
       Radius of the Solvent (RSOL)                           3.17000 angstr
  Dielectric Constant (EPSL)                                  4.80000

       COSMO equation is solved iteratively-               conjugate-gradient

       Maximun of Iterations for Charges (NCIX)                  1000
       Criterion for Charge convergence (CCNV)                1.0E-08

  COSMO charges included variationally in SCF

       COSMO included at every SCF cycle

  Geometry-dependent empirical factor                         0.00000

  C-Matrix calculated in cspmtx

  In cspmtx, C-Matrix calculated using fitted potential

-------------------------------------------

 Numerically sensitive XC: Boost radial integration grid.
 Radial integration boost factor:   3.00000000000000     


 -------------------------------------------
  COSMO surface
  Area             =          698.406
  Volume           =         1289.772
  Number of Points =         1814
 -------------------------------------------



 ======================
 RI Hartree-Fock Scheme
 ======================
  
 Fit Set Quality     : GOOD
 Integration Quality : GOOD
 Threshold Quality   : GOOD
 Response Quality    : DEFAULT
 Is Range Separated  :  F
 
 RIHartreeFock Dependency: number of modified vectors:          26
 cosmo_calcen: 0.5 (esolb+esolc) (Hartrees) =   -0.003803

 Solvation energy (screening term,uncorrected) =     -2.386346 kcal/mol

 Solvation energy (dispersion and cavitation terms) =      1.047249 kcal/mol
 Solvation Energy Contributions (Hartrees)
          esola   esolb+esolc
     0.00380288   -0.00760577
 esol last cycle   -0.00380288
  
 Hartree-Fock exchange energy:   -56.8588717135154     
 cosmo_calcen: 0.5 (esolb+esolc) (Hartrees) =   -0.003803

 Solvation energy (screening term,uncorrected) =     -2.386346 kcal/mol

 Solvation energy (dispersion and cavitation terms) =      1.047249 kcal/mol
 Solvation Energy Contributions (Hartrees)
          esola   esolb+esolc
     0.00380288   -0.00760577
 esol last cycle   -0.00380288

 Energy gradients wrt nuclear displacements
 ==========================================

     Atom      Cartesian (a.u./angstrom)
                 X         Y         Z
 ----------------------------------------
     1 C     0.000000  0.000852  0.001530
     2 C    -0.000000 -0.000852  0.001530
     3 C    -0.000000  0.000852 -0.001530
     4 C     0.000000 -0.000852 -0.001530
     5 C    -0.000000  0.000453 -0.000000
     6 C     0.000000 -0.000453 -0.000000
     7 C    -0.000000 -0.000188 -0.000218
     8 C     0.000000  0.000188 -0.000218
     9 C     0.000000 -0.000188  0.000218
    10 C    -0.000000  0.000188  0.000218
    11 H    -0.000000 -0.000274 -0.000000
    12 H     0.000000  0.000274 -0.000000
    13 H    -0.000000 -0.000484  0.000144
    14 H    -0.000377  0.000118 -0.000131
    15 H     0.000377  0.000118 -0.000131
    16 H     0.000000  0.000484  0.000144
    17 H     0.000377 -0.000118 -0.000131
    18 H    -0.000377 -0.000118 -0.000131
    19 H    -0.000377  0.000118  0.000131
    20 H     0.000000 -0.000484 -0.000144
    21 H     0.000377  0.000118  0.000131
    22 H     0.000377 -0.000118  0.000131
    23 H    -0.000000  0.000484 -0.000144
    24 H    -0.000377 -0.000118  0.000131
 ----------------------------------------
 Mulliken charges used for AMS results%charges...

 dE(predicted):    -0.84520E-04, dE(actual):    -0.10088E-03, Trust radius:    0.200000, all in a.u.
 
----------------------------------------------------------------------
Geometry Convergence after Step   3       (Hartree/Angstrom,Angstrom)
----------------------------------------------------------------------
current energy                               -6.97342482 Hartree
energy change                      -0.00010088     0.00024000    T
constrained gradient max            0.00152953     0.00100000    F
constrained gradient rms            0.00046489     0.00066667    T
gradient max                        0.00152953
gradient rms                        0.00046489
cart. step max                      0.00146039     0.00100000    F
cart. step rms                      0.00063072     0.00066667    T
 
 
--------
Geometry
--------
Atoms
  Index Symbol   x (angstrom)   y (angstrom)   z (angstrom)
      1      C    -0.00000000    -0.69957390    -1.22019035       adf.R=1.700
      2      C     0.00000000     0.69957390    -1.22019035       adf.R=1.700
      3      C    -0.00000000    -0.69957390     1.22019035       adf.R=1.700
      4      C     0.00000000     0.69957390     1.22019035       adf.R=1.700
      5      C    -0.00000000    -1.36880974    -0.00000000       adf.R=1.700
      6      C     0.00000000     1.36880974    -0.00000000       adf.R=1.700
      7      C    -0.00000000    -1.46276129    -2.51676502       adf.R=1.700
      8      C     0.00000000     1.46276129    -2.51676502       adf.R=1.700
      9      C    -0.00000000    -1.46276129     2.51676502       adf.R=1.700
     10      C     0.00000000     1.46276129     2.51676502       adf.R=1.700
     11      H    -0.00000000    -2.45340712    -0.00000000       adf.R=1.350
     12      H     0.00000000     2.45340712    -0.00000000       adf.R=1.350
     13      H    -0.00000000    -2.53597807    -2.33773475       adf.R=1.350
     14      H    -0.87664326    -1.21638346    -3.11862304       adf.R=1.350
     15      H     0.87664326    -1.21638346    -3.11862304       adf.R=1.350
     16      H     0.00000000     2.53597807    -2.33773475       adf.R=1.350
     17      H     0.87664326     1.21638346    -3.11862304       adf.R=1.350
     18      H    -0.87664326     1.21638346    -3.11862304       adf.R=1.350
     19      H    -0.87664326    -1.21638346     3.11862304       adf.R=1.350
     20      H    -0.00000000    -2.53597807     2.33773475       adf.R=1.350
     21      H     0.87664326    -1.21638346     3.11862304       adf.R=1.350
     22      H     0.87664326     1.21638346     3.11862304       adf.R=1.350
     23      H     0.00000000     2.53597807     2.33773475       adf.R=1.350
     24      H    -0.87664326     1.21638346     3.11862304       adf.R=1.350
 
Total System Charge             0.00000
Bonding info available!
 
 *** GOStep4 ***

 SOLVATION
-------------------------------------------

  The Delley construction of COSMO surface surface is calculated

       Division Level for Surface Triangles (NDIV)                  3
       Final Division Level for Triangles (NFDIV)                   1
       Radius of the Solvent (RSOL)                           3.17000 angstr
  Dielectric Constant (EPSL)                                  4.80000

       COSMO equation is solved iteratively-               conjugate-gradient

       Maximun of Iterations for Charges (NCIX)                  1000
       Criterion for Charge convergence (CCNV)                1.0E-08

  COSMO charges included variationally in SCF

       COSMO included at every SCF cycle

  Geometry-dependent empirical factor                         0.00000

  C-Matrix calculated in cspmtx

  In cspmtx, C-Matrix calculated using fitted potential

-------------------------------------------

 Numerically sensitive XC: Boost radial integration grid.
 Radial integration boost factor:   3.00000000000000     


 -------------------------------------------
  COSMO surface
  Area             =          698.301
  Volume           =         1289.526
  Number of Points =         1822
 -------------------------------------------



 ======================
 RI Hartree-Fock Scheme
 ======================
  
 Fit Set Quality     : GOOD
 Integration Quality : GOOD
 Threshold Quality   : GOOD
 Response Quality    : DEFAULT
 Is Range Separated  :  F
 
 RIHartreeFock Dependency: number of modified vectors:          26
 cosmo_calcen: 0.5 (esolb+esolc) (Hartrees) =   -0.003811

 Solvation energy (screening term,uncorrected) =     -2.391274 kcal/mol

 Solvation energy (dispersion and cavitation terms) =      1.047091 kcal/mol
 Solvation Energy Contributions (Hartrees)
          esola   esolb+esolc
     0.00381074   -0.00762147
 esol last cycle   -0.00381074
  
 Hartree-Fock exchange energy:   -56.8598910205991     
 cosmo_calcen: 0.5 (esolb+esolc) (Hartrees) =   -0.003811

 Solvation energy (screening term,uncorrected) =     -2.391274 kcal/mol

 Solvation energy (dispersion and cavitation terms) =      1.047091 kcal/mol
 Solvation Energy Contributions (Hartrees)
          esola   esolb+esolc
     0.00381074   -0.00762147
 esol last cycle   -0.00381074

 Energy gradients wrt nuclear displacements
 ==========================================

     Atom      Cartesian (a.u./angstrom)
                 X         Y         Z
 ----------------------------------------
     1 C    -0.000000  0.000365  0.000263
     2 C     0.000000 -0.000365  0.000263
     3 C     0.000000  0.000365 -0.000263
     4 C    -0.000000 -0.000365 -0.000263
     5 C    -0.000000  0.000016 -0.000000
     6 C     0.000000 -0.000016 -0.000000
     7 C     0.000000 -0.000071 -0.000305
     8 C    -0.000000  0.000071 -0.000305
     9 C    -0.000000 -0.000071  0.000305
    10 C     0.000000  0.000071  0.000305
    11 H    -0.000000  0.000070  0.000000
    12 H     0.000000 -0.000070  0.000000
    13 H    -0.000000  0.000011  0.000045
    14 H     0.000007  0.000015  0.000050
    15 H    -0.000007  0.000015  0.000050
    16 H     0.000000 -0.000011  0.000045
    17 H    -0.000007 -0.000015  0.000050
    18 H     0.000007 -0.000015  0.000050
    19 H     0.000007  0.000015 -0.000050
    20 H     0.000000  0.000011 -0.000045
    21 H    -0.000007  0.000015 -0.000050
    22 H    -0.000007 -0.000015 -0.000050
    23 H    -0.000000 -0.000011 -0.000045
    24 H     0.000007 -0.000015 -0.000050
 ----------------------------------------
 Mulliken charges used for AMS results%charges...

 dE(predicted):    -0.37166E-05, dE(actual):    -0.23062E-05, Trust radius:    0.200000, all in a.u.
 
---------------------------------------------------------
Geometry Convergence after Step   4       ** CONVERGED **
---------------------------------------------------------
current energy                               -6.97342713 Hartree
energy change                      -0.00000231     0.00024000    T
constrained gradient max            0.00036506     0.00100000    T
constrained gradient rms            0.00013139     0.00066667    T
gradient max                        0.00036506
gradient rms                        0.00013139
cart. step max                      0.00043124     0.00100000    T
cart. step rms                      0.00017944     0.00066667    T
 
Geometry optimization converged

Optimized geometry:
 
--------
Geometry
--------
Atoms
  Index Symbol   x (angstrom)   y (angstrom)   z (angstrom)
      1      C    -0.00000000    -0.69957390    -1.22019035       adf.R=1.700
      2      C     0.00000000     0.69957390    -1.22019035       adf.R=1.700
      3      C    -0.00000000    -0.69957390     1.22019035       adf.R=1.700
      4      C     0.00000000     0.69957390     1.22019035       adf.R=1.700
      5      C    -0.00000000    -1.36880974    -0.00000000       adf.R=1.700
      6      C     0.00000000     1.36880974    -0.00000000       adf.R=1.700
      7      C    -0.00000000    -1.46276129    -2.51676502       adf.R=1.700
      8      C     0.00000000     1.46276129    -2.51676502       adf.R=1.700
      9      C    -0.00000000    -1.46276129     2.51676502       adf.R=1.700
     10      C     0.00000000     1.46276129     2.51676502       adf.R=1.700
     11      H    -0.00000000    -2.45340712    -0.00000000       adf.R=1.350
     12      H     0.00000000     2.45340712    -0.00000000       adf.R=1.350
     13      H    -0.00000000    -2.53597807    -2.33773475       adf.R=1.350
     14      H    -0.87664326    -1.21638346    -3.11862304       adf.R=1.350
     15      H     0.87664326    -1.21638346    -3.11862304       adf.R=1.350
     16      H     0.00000000     2.53597807    -2.33773475       adf.R=1.350
     17      H     0.87664326     1.21638346    -3.11862304       adf.R=1.350
     18      H    -0.87664326     1.21638346    -3.11862304       adf.R=1.350
     19      H    -0.87664326    -1.21638346     3.11862304       adf.R=1.350
     20      H    -0.00000000    -2.53597807     2.33773475       adf.R=1.350
     21      H     0.87664326    -1.21638346     3.11862304       adf.R=1.350
     22      H     0.87664326     1.21638346     3.11862304       adf.R=1.350
     23      H     0.00000000     2.53597807     2.33773475       adf.R=1.350
     24      H    -0.87664326     1.21638346     3.11862304       adf.R=1.350
 
Total System Charge             0.00000
Bonding info available!
 
Performing a single point calculation on the final geometry ...

 *** adf ***



 ===========================
 A T T A C H E D   F I L E S
 ===========================
  
 Restart/tmp/amstmp_ams_kid0.1792836913/GOStep4.rkf*** GOStep4 ***



 ===============================
 M O D E L   P A R A M E T E R S
 ===============================
  
 DENSITY FUNCTIONAL POTENTIAL (scf)
    Meta-Hybrid:                       M06-2X                                  == Not Default ==

 SPIN  (restricted / unrestr.)
    Molecule:                          Restricted                               
    Fragments:                         Restricted                               

 OTHER ASPECTS
    Relativistic Corrections:          ---                                     == Not Default ==

    Nuclear Charge Density Model:      Point Charge Nuclei                      
    Core Treatment:                    Frozen Orbital(s)                        

    Hyperfine or Zeeman Interaction:   ---                                      

 SOLVATION
-------------------------------------------

  The Delley construction of COSMO surface surface is calculated

       Division Level for Surface Triangles (NDIV)                  3
       Final Division Level for Triangles (NFDIV)                   1
       Radius of the Solvent (RSOL)                           3.17000 angstr
  Dielectric Constant (EPSL)                                  4.80000

       COSMO equation is solved iteratively-               conjugate-gradient

       Maximun of Iterations for Charges (NCIX)                  1000
       Criterion for Charge convergence (CCNV)                1.0E-08

  COSMO charges included variationally in SCF

       COSMO included at every SCF cycle

  Geometry-dependent empirical factor                         0.00000

  C-Matrix calculated in cspmtx

  In cspmtx, C-Matrix calculated using fitted potential

-------------------------------------------




 ===============
 G E O M E T R Y  ***  3D  Molecule  ***
 ===============
  

 ATOMS
 =====                            X Y Z                    CHARGE                     RADIUS
                                (Angstrom)             Nucl     +Core       At.Mass (Angstrom)
                       --------------------------    ----------------       ------- ----------
    1  C              -0.0000   -0.6996   -1.2202      6.00      6.00       12.0000    1.7000
    2  C               0.0000    0.6996   -1.2202      6.00      6.00       12.0000    1.7000
    3  C              -0.0000   -0.6996    1.2202      6.00      6.00       12.0000    1.7000
    4  C               0.0000    0.6996    1.2202      6.00      6.00       12.0000    1.7000
    5  C              -0.0000   -1.3688   -0.0000      6.00      6.00       12.0000    1.7000
    6  C               0.0000    1.3688   -0.0000      6.00      6.00       12.0000    1.7000
    7  C              -0.0000   -1.4628   -2.5168      6.00      6.00       12.0000    1.7000
    8  C               0.0000    1.4628   -2.5168      6.00      6.00       12.0000    1.7000
    9  C              -0.0000   -1.4628    2.5168      6.00      6.00       12.0000    1.7000
   10  C               0.0000    1.4628    2.5168      6.00      6.00       12.0000    1.7000
   11  H              -0.0000   -2.4534   -0.0000      1.00      1.00        1.0078    1.3500
   12  H               0.0000    2.4534   -0.0000      1.00      1.00        1.0078    1.3500
   13  H              -0.0000   -2.5360   -2.3377      1.00      1.00        1.0078    1.3500
   14  H              -0.8766   -1.2164   -3.1186      1.00      1.00        1.0078    1.3500
   15  H               0.8766   -1.2164   -3.1186      1.00      1.00        1.0078    1.3500
   16  H               0.0000    2.5360   -2.3377      1.00      1.00        1.0078    1.3500
   17  H               0.8766    1.2164   -3.1186      1.00      1.00        1.0078    1.3500
   18  H              -0.8766    1.2164   -3.1186      1.00      1.00        1.0078    1.3500
   19  H              -0.8766   -1.2164    3.1186      1.00      1.00        1.0078    1.3500
   20  H              -0.0000   -2.5360    2.3377      1.00      1.00        1.0078    1.3500
   21  H               0.8766   -1.2164    3.1186      1.00      1.00        1.0078    1.3500
   22  H               0.8766    1.2164    3.1186      1.00      1.00        1.0078    1.3500
   23  H               0.0000    2.5360    2.3377      1.00      1.00        1.0078    1.3500
   24  H              -0.8766    1.2164    3.1186      1.00      1.00        1.0078    1.3500


 FRAGMENTS
 =========                                     Atoms in this Fragment     Cart. coord.s (Angstrom)
                                               -------------------------------------------------------
    1  C                                                 1  C           -0.0000   -0.6996   -1.2202
    2  C                                                 2  C            0.0000    0.6996   -1.2202
    3  C                                                 3  C           -0.0000   -0.6996    1.2202
    4  C                                                 4  C            0.0000    0.6996    1.2202
    5  C                                                 5  C           -0.0000   -1.3688   -0.0000
    6  C                                                 6  C            0.0000    1.3688   -0.0000
    7  C                                                 7  C           -0.0000   -1.4628   -2.5168
    8  C                                                 8  C            0.0000    1.4628   -2.5168
    9  C                                                 9  C           -0.0000   -1.4628    2.5168
   10  C                                                10  C            0.0000    1.4628    2.5168
   11  H                                                11  H           -0.0000   -2.4534   -0.0000
   12  H                                                12  H            0.0000    2.4534   -0.0000
   13  H                                                13  H           -0.0000   -2.5360   -2.3377
   14  H                                                14  H           -0.8766   -1.2164   -3.1186
   15  H                                                15  H            0.8766   -1.2164   -3.1186
   16  H                                                16  H            0.0000    2.5360   -2.3377
   17  H                                                17  H            0.8766    1.2164   -3.1186
   18  H                                                18  H           -0.8766    1.2164   -3.1186
   19  H                                                19  H           -0.8766   -1.2164    3.1186
   20  H                                                20  H           -0.0000   -2.5360    2.3377
   21  H                                                21  H            0.8766   -1.2164    3.1186
   22  H                                                22  H            0.8766    1.2164    3.1186
   23  H                                                23  H            0.0000    2.5360    2.3377
   24  H                                                24  H           -0.8766    1.2164    3.1186



 =====================================
 S Y M M E T R Y ,   E L E C T R O N S
 =====================================
  
 Symmetry: D(2H)

 Irreducible Representations, including subspecies
 -------------------------------------------------
 A.g
 B1.g
 B2.g
 B3.g
 A.u
 B1.u
 B2.u
 B3.u

 Symmetry is NOT used when fitting density


 Configuration of Valence Electrons
 ==================================
 ( determined in the SCF procedure )

 Total:   74

 Net Charge: 0 (Nuclei minus Electrons)

 Aufbau principle for MO occupations will be applied through SCF cycle no.     150
 Thereafter, the program will assign electrons to MOs that are spatially
 similar to the occupied MOs in a "reference" cycle ("KeepOrbitals").
 The reference cycle is always the PREVIOUS cycle: it will evolve with
 the SCF procedure.
1
 ***************************************************************************************************



                                      ****************************************
                                      *  B U I L D : (Fragments, Functions)  *
                                      ****************************************
  



 =======
 S F O s  ***  (Symmetrized Fragment Orbitals)  ***
 =======
  
 SFOs are linear combinations of (valence) Fragment Orbitals (FOs), such that the SFOs transform as the
 irreducible representations of the (molecular) symmetry group. Each SFO is therefore characterized by
 an irrep of the molecule and by a few (or only one) generating FOs.
 The SFOs constitute a symmetry-adapted basis for the Fock matrix. The MO eigenvector coefficients in
 this basis provide a direct interpretation of the MOs in terms of Frontier Orbital Theory.

 The SFOs are combined with auxiliary Core Functions (CFs) to ensure orthogonalization on the (frozen)
 Core Orbitals (COs). The Core-orthogonalized SFOs (CSFOs) constitute the true Fock basis.

 The FOs, and hence also the (C)SFOs are combinations of the elementary basis functions (BAS). The basis
 functions that participate in the description of the SFOs depend on the irrep. The indices of the
 involved functions are printed below for each irrep.
 (The complete list of primitive basis functions is printed in another section)

 Total nr. of (C)SFOs (summation over all irreps) :   414

 NOTE: a (C)SFO that is defined as a combination of more than one FO is usually NOT normalized.



                                       === A.g ===
 Nr. of SFOs :   73
 Cartesian basis functions that participate in this irrep (total number =   342) :
      1    31    61    91     2    32    62    92     3    33
     63    93     4    34    64    94     5    35    65    95
      8    38    68    98    11    41    71   101    14    44
     74   104     7    37    67    97    10    40    70   100
     13    43    73   103    20    50    80   110    19    49
     79   109    15    18    45    48    75    78   105   108
     30    60    90   120    29    59    89   119    23    28
     53    58    83    88   113   118    22    27    52    57
     82    87   112   117   121   151   122   152   123   153
    124   154   125   155   127   157   130   160   133   163
    140   170   135   138   165   168   149   179   142   147
    172   177   181   211   241   271   182   212   242   272
    183   213   243   273   184   214   244   274   185   215
    245   275   188   218   248   278   191   221   251   281
    194   224   254   284   187   217   247   277   190   220
    250   280   193   223   253   283   200   230   260   290
    199   229   259   289   195   198   225   228   255   258
    285   288   210   240   270   300   209   239   269   299
    203   208   233   238   263   268   293   298   202   207
    232   237   262   267   292   297   301   313   302   314
    303   315   305   317   312   324   307   310   319   322
    325   361   409   445   326   362   410   446   327   363
    411   447   330   366   414   450   329   365   413   449
    336   372   420   456   335   371   419   455   331   334
    367   370   415   418   451   454   337   349   373   385
    397   421   433   457   338   350   374   386   398   422
    434   458   339   351   375   387   399   423   435   459
    342   354   378   390   402   426   438   462   340   341
    352   353   376   377   388   389   400   401   424   425
    436   437   460   461   348   360   384   396   408   432
    444   468   345   347   357   359   381   383   393   395
    405   407   429   431   441   443   465   467   343   344
    346   355   356   358   379   380   382   391   392   394
    403   404   406   427   428   430   439   440   442   463
    464   466

    SFO  (index         Fragment          Generating    Expansion in Fragment Orbitals
  indx  incl.CFs)   Occup   Orb.Energy   FragmentType  Coeff.   Orbital     on Fragment
 --------------------------------------------------------------------------------------
     1       1      2.000     -10.738 au  C             0.50      1 S               1
                        (    -292.202 eV)               0.50      1 S               2
                                                        0.50      1 S               3
                                                        0.50      1 S               4
     2       2      2.000      -0.646 au  C             0.50      2 S               1
                        (     -17.581 eV)               0.50      2 S               2
                                                        0.50      2 S               3
                                                        0.50      2 S               4
     3       3       --         0.433 au  C             0.50      3 S               1
                        (      11.786 eV)               0.50      3 S               2
                                                        0.50      3 S               3
                                                        0.50      3 S               4
     4       4       --         5.564 au  C             0.50      4 S               1
                        (     151.402 eV)               0.50      4 S               2
                                                        0.50      4 S               3
                                                        0.50      4 S               4
     5       5       --        50.242 au  C             0.50      5 S               1
                        (    1367.146 eV)               0.50      5 S               2
                                                        0.50      5 S               3
                                                        0.50      5 S               4
     6       6      0.667      -0.174 au  C             0.50      1 P:y             1
                        (      -4.724 eV)              -0.50      1 P:y             2
                                                        0.50      1 P:y             3
                                                       -0.50      1 P:y             4
     7       7       --         0.227 au  C             0.50      2 P:y             1
                        (       6.178 eV)              -0.50      2 P:y             2
                                                        0.50      2 P:y             3
                                                       -0.50      2 P:y             4
     8       8       --         2.146 au  C             0.50      3 P:y             1
                        (      58.399 eV)              -0.50      3 P:y             2
                                                        0.50      3 P:y             3
                                                       -0.50      3 P:y             4
     9       9      0.667      -0.174 au  C             0.50      1 P:z             1
                        (      -4.724 eV)               0.50      1 P:z             2
                                                       -0.50      1 P:z             3
                                                       -0.50      1 P:z             4
    10      10       --         0.227 au  C             0.50      2 P:z             1
                        (       6.178 eV)               0.50      2 P:z             2
                                                       -0.50      2 P:z             3
                                                       -0.50      2 P:z             4
    11      11       --         2.146 au  C             0.50      3 P:z             1
                        (      58.399 eV)               0.50      3 P:z             2
                                                       -0.50      3 P:z             3
                                                       -0.50      3 P:z             4
    12      12       --         1.327 au  C             0.50      1 D:z2            1
                        (      36.114 eV)               0.50      1 D:z2            2
                                                        0.50      1 D:z2            3
                                                        0.50      1 D:z2            4
    13      13       --         1.327 au  C             0.50      1 D:x2-y2         1
                        (      36.114 eV)               0.50      1 D:x2-y2         2
                                                        0.50      1 D:x2-y2         3
                                                        0.50      1 D:x2-y2         4
    14      14       --         1.327 au  C             0.50      1 D:yz            1
                        (      36.114 eV)              -0.50      1 D:yz            2
                                                       -0.50      1 D:yz            3
                                                        0.50      1 D:yz            4
    15      15       --         4.038 au  C             0.50      1 F:z3            1
                        (     109.882 eV)               0.50      1 F:z3            2
                                                       -0.50      1 F:z3            3
                                                       -0.50      1 F:z3            4
    16      16       --         4.038 au  C             0.50      1 F:z             1
                        (     109.882 eV)               0.50      1 F:z             2
                                                       -0.50      1 F:z             3
                                                       -0.50      1 F:z             4
    17      17       --         4.038 au  C             0.50      1 F:z2y           1
                        (     109.882 eV)              -0.50      1 F:z2y           2
                                                        0.50      1 F:z2y           3
                                                       -0.50      1 F:z2y           4
    18      18       --         4.038 au  C             0.50      1 F:y             1
                        (     109.882 eV)              -0.50      1 F:y             2
                                                        0.50      1 F:y             3
                                                       -0.50      1 F:y             4
    19      19      2.000     -10.738 au  C             0.71      1 S               5
                        (    -292.202 eV)               0.71      1 S               6
    20      20      2.000      -0.646 au  C             0.71      2 S               5
                        (     -17.581 eV)               0.71      2 S               6
    21      21       --         0.433 au  C             0.71      3 S               5
                        (      11.786 eV)               0.71      3 S               6
    22      22       --         5.564 au  C             0.71      4 S               5
                        (     151.402 eV)               0.71      4 S               6
    23      23       --        50.242 au  C             0.71      5 S               5
                        (    1367.146 eV)               0.71      5 S               6
    24      24      0.667      -0.174 au  C             0.71      1 P:y             5
                        (      -4.724 eV)              -0.71      1 P:y             6
    25      25       --         0.227 au  C             0.71      2 P:y             5
                        (       6.178 eV)              -0.71      2 P:y             6
    26      26       --         2.146 au  C             0.71      3 P:y             5
                        (      58.399 eV)              -0.71      3 P:y             6
    27      27       --         1.327 au  C             0.71      1 D:z2            5
                        (      36.114 eV)               0.71      1 D:z2            6
    28      28       --         1.327 au  C             0.71      1 D:x2-y2         5
                        (      36.114 eV)               0.71      1 D:x2-y2         6
    29      29       --         4.038 au  C             0.71      1 F:z2y           5
                        (     109.882 eV)              -0.71      1 F:z2y           6
    30      30       --         4.038 au  C             0.71      1 F:y             5
                        (     109.882 eV)              -0.71      1 F:y             6
    31      31      2.000     -10.738 au  C             0.50      1 S               7
                        (    -292.202 eV)               0.50      1 S               8
                                                        0.50      1 S               9
                                                        0.50      1 S              10
    32      32      2.000      -0.646 au  C             0.50      2 S               7
                        (     -17.581 eV)               0.50      2 S               8
                                                        0.50      2 S               9
                                                        0.50      2 S              10
    33      33       --         0.433 au  C             0.50      3 S               7
                        (      11.786 eV)               0.50      3 S               8
                                                        0.50      3 S               9
                                                        0.50      3 S              10
    34      34       --         5.564 au  C             0.50      4 S               7
                        (     151.402 eV)               0.50      4 S               8
                                                        0.50      4 S               9
                                                        0.50      4 S              10
    35      35       --        50.242 au  C             0.50      5 S               7
                        (    1367.146 eV)               0.50      5 S               8
                                                        0.50      5 S               9
                                                        0.50      5 S              10
    36      36      0.667      -0.174 au  C             0.50      1 P:y             7
                        (      -4.724 eV)              -0.50      1 P:y             8
                                                        0.50      1 P:y             9
                                                       -0.50      1 P:y            10
    37      37       --         0.227 au  C             0.50      2 P:y             7
                        (       6.178 eV)              -0.50      2 P:y             8
                                                        0.50      2 P:y             9
                                                       -0.50      2 P:y            10
    38      38       --         2.146 au  C             0.50      3 P:y             7
                        (      58.399 eV)              -0.50      3 P:y             8
                                                        0.50      3 P:y             9
                                                       -0.50      3 P:y            10
    39      39      0.667      -0.174 au  C             0.50      1 P:z             7
                        (      -4.724 eV)               0.50      1 P:z             8
                                                       -0.50      1 P:z             9
                                                       -0.50      1 P:z            10
    40      40       --         0.227 au  C             0.50      2 P:z             7
                        (       6.178 eV)               0.50      2 P:z             8
                                                       -0.50      2 P:z             9
                                                       -0.50      2 P:z            10
    41      41       --         2.146 au  C             0.50      3 P:z             7
                        (      58.399 eV)               0.50      3 P:z             8
                                                       -0.50      3 P:z             9
                                                       -0.50      3 P:z            10
    42      42       --         1.327 au  C             0.50      1 D:z2            7
                        (      36.114 eV)               0.50      1 D:z2            8
                                                        0.50      1 D:z2            9
                                                        0.50      1 D:z2           10
    43      43       --         1.327 au  C             0.50      1 D:x2-y2         7
                        (      36.114 eV)               0.50      1 D:x2-y2         8
                                                        0.50      1 D:x2-y2         9
                                                        0.50      1 D:x2-y2        10
    44      44       --         1.327 au  C             0.50      1 D:yz            7
                        (      36.114 eV)              -0.50      1 D:yz            8
                                                       -0.50      1 D:yz            9
                                                        0.50      1 D:yz           10
    45      45       --         4.038 au  C             0.50      1 F:z3            7
                        (     109.882 eV)               0.50      1 F:z3            8
                                                       -0.50      1 F:z3            9
                                                       -0.50      1 F:z3           10
    46      46       --         4.038 au  C             0.50      1 F:z             7
                        (     109.882 eV)               0.50      1 F:z             8
                                                       -0.50      1 F:z             9
                                                       -0.50      1 F:z            10
    47      47       --         4.038 au  C             0.50      1 F:z2y           7
                        (     109.882 eV)              -0.50      1 F:z2y           8
                                                        0.50      1 F:z2y           9
                                                       -0.50      1 F:z2y          10
    48      48       --         4.038 au  C             0.50      1 F:y             7
                        (     109.882 eV)              -0.50      1 F:y             8
                                                        0.50      1 F:y             9
                                                       -0.50      1 F:y            10
    49      49      1.000      -0.241 au  H             0.71      1 S              11
                        (      -6.547 eV)               0.71      1 S              12
    50      50       --         0.133 au  H             0.71      2 S              11
                        (       3.632 eV)               0.71      2 S              12
    51      51       --         1.528 au  H             0.71      3 S              11
                        (      41.591 eV)               0.71      3 S              12
    52      52       --         0.464 au  H             0.71      1 P:y            11
                        (      12.639 eV)              -0.71      1 P:y            12
    53      53       --         2.530 au  H             0.71      1 D:z2           11
                        (      68.848 eV)               0.71      1 D:z2           12
    54      54       --         2.530 au  H             0.71      1 D:x2-y2        11
                        (      68.848 eV)               0.71      1 D:x2-y2        12
    55      55      1.000      -0.241 au  H             0.50      1 S              13
                        (      -6.547 eV)               0.50      1 S              16
                                                        0.50      1 S              20
                                                        0.50      1 S              23
    56      56       --         0.133 au  H             0.50      2 S              13
                        (       3.632 eV)               0.50      2 S              16
                                                        0.50      2 S              20
                                                        0.50      2 S              23
    57      57       --         1.528 au  H             0.50      3 S              13
                        (      41.591 eV)               0.50      3 S              16
                                                        0.50      3 S              20
                                                        0.50      3 S              23
    58      58       --         0.464 au  H             0.50      1 P:y            13
                        (      12.639 eV)              -0.50      1 P:y            16
                                                        0.50      1 P:y            20
                                                       -0.50      1 P:y            23
    59      59       --         0.464 au  H             0.50      1 P:z            13
                        (      12.639 eV)               0.50      1 P:z            16
                                                       -0.50      1 P:z            20
                                                       -0.50      1 P:z            23
    60      60       --         2.530 au  H             0.50      1 D:z2           13
                        (      68.848 eV)               0.50      1 D:z2           16
                                                        0.50      1 D:z2           20
                                                        0.50      1 D:z2           23
    61      61       --         2.530 au  H             0.50      1 D:x2-y2        13
                        (      68.848 eV)               0.50      1 D:x2-y2        16
                                                        0.50      1 D:x2-y2        20
                                                        0.50      1 D:x2-y2        23
    62      62       --         2.530 au  H             0.50      1 D:yz           13
                        (      68.848 eV)              -0.50      1 D:yz           16
                                                       -0.50      1 D:yz           20
                                                        0.50      1 D:yz           23
    63      63      1.000      -0.241 au  H             0.35      1 S              14
                        (      -6.547 eV)               0.35      1 S              15
                                                        0.35      1 S              17
                                                        0.35      1 S              18
                                                        0.35      1 S              19
                                                        0.35      1 S              21
                                                        0.35      1 S              22
                                                        0.35      1 S              24
    64      64       --         0.133 au  H             0.35      2 S              14
                        (       3.632 eV)               0.35      2 S              15
                                                        0.35      2 S              17
                                                        0.35      2 S              18
                                                        0.35      2 S              19
                                                        0.35      2 S              21
                                                        0.35      2 S              22
                                                        0.35      2 S              24
    65      65       --         1.528 au  H             0.35      3 S              14
                        (      41.591 eV)               0.35      3 S              15
                                                        0.35      3 S              17
                                                        0.35      3 S              18
                                                        0.35      3 S              19
                                                        0.35      3 S              21
                                                        0.35      3 S              22
                                                        0.35      3 S              24
    66      66       --         0.464 au  H             0.35      1 P:x            14
                        (      12.639 eV)              -0.35      1 P:x            15
                                                       -0.35      1 P:x            17
                                                        0.35      1 P:x            18
                                                        0.35      1 P:x            19
                                                       -0.35      1 P:x            21
                                                       -0.35      1 P:x            22
                                                        0.35      1 P:x            24
    67      67       --         0.464 au  H             0.35      1 P:y            14
                        (      12.639 eV)               0.35      1 P:y            15
                                                       -0.35      1 P:y            17
                                                       -0.35      1 P:y            18
                                                        0.35      1 P:y            19
                                                        0.35      1 P:y            21
                                                       -0.35      1 P:y            22
                                                       -0.35      1 P:y            24
    68      68       --         0.464 au  H             0.35      1 P:z            14
                        (      12.639 eV)               0.35      1 P:z            15
                                                        0.35      1 P:z            17
                                                        0.35      1 P:z            18
                                                       -0.35      1 P:z            19
                                                       -0.35      1 P:z            21
                                                       -0.35      1 P:z            22
                                                       -0.35      1 P:z            24
    69      69       --         2.530 au  H             0.35      1 D:z2           14
                        (      68.848 eV)               0.35      1 D:z2           15
                                                        0.35      1 D:z2           17
                                                        0.35      1 D:z2           18
                                                        0.35      1 D:z2           19
                                                        0.35      1 D:z2           21
                                                        0.35      1 D:z2           22
                                                        0.35      1 D:z2           24
    70      70       --         2.530 au  H             0.35      1 D:x2-y2        14
                        (      68.848 eV)               0.35      1 D:x2-y2        15
                                                        0.35      1 D:x2-y2        17
                                                        0.35      1 D:x2-y2        18
                                                        0.35      1 D:x2-y2        19
                                                        0.35      1 D:x2-y2        21
                                                        0.35      1 D:x2-y2        22
                                                        0.35      1 D:x2-y2        24
    71      71       --         2.530 au  H             0.35      1 D:xy           14
                        (      68.848 eV)              -0.35      1 D:xy           15
                                                        0.35      1 D:xy           17
                                                       -0.35      1 D:xy           18
                                                        0.35      1 D:xy           19
                                                       -0.35      1 D:xy           21
                                                        0.35      1 D:xy           22
                                                       -0.35      1 D:xy           24
    72      72       --         2.530 au  H             0.35      1 D:xz           14
                        (      68.848 eV)              -0.35      1 D:xz           15
                                                       -0.35      1 D:xz           17
                                                        0.35      1 D:xz           18
                                                       -0.35      1 D:xz           19
                                                        0.35      1 D:xz           21
                                                        0.35      1 D:xz           22
                                                       -0.35      1 D:xz           24
    73      73       --         2.530 au  H             0.35      1 D:yz           14
                        (      68.848 eV)               0.35      1 D:yz           15
                                                       -0.35      1 D:yz           17
                                                       -0.35      1 D:yz           18
                                                       -0.35      1 D:yz           19
                                                       -0.35      1 D:yz           21
                                                        0.35      1 D:yz           22
                                                        0.35      1 D:yz           24



                                       === B1.g ===
 Nr. of SFOs :   38
 Cartesian basis functions that participate in this irrep (total number =   198) :
      6    36    66    96     9    39    69    99    12    42
     72   102    17    47    77   107    16    46    76   106
     26    56    86   116    25    55    85   115    21    24
     51    54    81    84   111   114   126   156   129   159
    132   162   136   166   146   176   141   144   171   174
    186   216   246   276   189   219   249   279   192   222
    252   282   197   227   257   287   196   226   256   286
    206   236   266   296   205   235   265   295   201   204
    231   234   261   264   291   294   304   316   308   320
    328   364   412   448   333   369   417   453   332   368
    416   452   337   349   373   385   397   421   433   457
    338   350   374   386   398   422   434   458   339   351
    375   387   399   423   435   459   342   354   378   390
    402   426   438   462   340   341   352   353   376   377
    388   389   400   401   424   425   436   437   460   461
    348   360   384   396   408   432   444   468   345   347
    357   359   381   383   393   395   405   407   429   431
    441   443   465   467   343   344   346   355   356   358
    379   380   382   391   392   394   403   404   406   427
    428   430   439   440   442   463   464   466

    SFO  (index         Fragment          Generating    Expansion in Fragment Orbitals
  indx  incl.CFs)   Occup   Orb.Energy   FragmentType  Coeff.   Orbital     on Fragment
 --------------------------------------------------------------------------------------
     1       1      0.667      -0.174 au  C             0.50      1 P:x             1
                        (      -4.724 eV)              -0.50      1 P:x             2
                                                        0.50      1 P:x             3
                                                       -0.50      1 P:x             4
     2       2       --         0.227 au  C             0.50      2 P:x             1
                        (       6.178 eV)              -0.50      2 P:x             2
                                                        0.50      2 P:x             3
                                                       -0.50      2 P:x             4
     3       3       --         2.146 au  C             0.50      3 P:x             1
                        (      58.399 eV)              -0.50      3 P:x             2
                                                        0.50      3 P:x             3
                                                       -0.50      3 P:x             4
     4       4       --         1.327 au  C             0.50      1 D:xy            1
                        (      36.114 eV)               0.50      1 D:xy            2
                                                        0.50      1 D:xy            3
                                                        0.50      1 D:xy            4
     5       5       --         1.327 au  C             0.50      1 D:xz            1
                        (      36.114 eV)              -0.50      1 D:xz            2
                                                       -0.50      1 D:xz            3
                                                        0.50      1 D:xz            4
     6       6       --         4.038 au  C             0.50      1 F:xyz           1
                        (     109.882 eV)               0.50      1 F:xyz           2
                                                       -0.50      1 F:xyz           3
                                                       -0.50      1 F:xyz           4
     7       7       --         4.038 au  C             0.50      1 F:z2x           1
                        (     109.882 eV)              -0.50      1 F:z2x           2
                                                        0.50      1 F:z2x           3
                                                       -0.50      1 F:z2x           4
     8       8       --         4.038 au  C             0.50      1 F:x             1
                        (     109.882 eV)              -0.50      1 F:x             2
                                                        0.50      1 F:x             3
                                                       -0.50      1 F:x             4
     9       9      0.667      -0.174 au  C             0.71      1 P:x             5
                        (      -4.724 eV)              -0.71      1 P:x             6
    10      10       --         0.227 au  C             0.71      2 P:x             5
                        (       6.178 eV)              -0.71      2 P:x             6
    11      11       --         2.146 au  C             0.71      3 P:x             5
                        (      58.399 eV)              -0.71      3 P:x             6
    12      12       --         1.327 au  C             0.71      1 D:xy            5
                        (      36.114 eV)               0.71      1 D:xy            6
    13      13       --         4.038 au  C             0.71      1 F:z2x           5
                        (     109.882 eV)              -0.71      1 F:z2x           6
    14      14       --         4.038 au  C             0.71      1 F:x             5
                        (     109.882 eV)              -0.71      1 F:x             6
    15      15      0.667      -0.174 au  C             0.50      1 P:x             7
                        (      -4.724 eV)              -0.50      1 P:x             8
                                                        0.50      1 P:x             9
                                                       -0.50      1 P:x            10
    16      16       --         0.227 au  C             0.50      2 P:x             7
                        (       6.178 eV)              -0.50      2 P:x             8
                                                        0.50      2 P:x             9
                                                       -0.50      2 P:x            10
    17      17       --         2.146 au  C             0.50      3 P:x             7
                        (      58.399 eV)              -0.50      3 P:x             8
                                                        0.50      3 P:x             9
                                                       -0.50      3 P:x            10
    18      18       --         1.327 au  C             0.50      1 D:xy            7
                        (      36.114 eV)               0.50      1 D:xy            8
                                                        0.50      1 D:xy            9
                                                        0.50      1 D:xy           10
    19      19       --         1.327 au  C             0.50      1 D:xz            7
                        (      36.114 eV)              -0.50      1 D:xz            8
                                                       -0.50      1 D:xz            9
                                                        0.50      1 D:xz           10
    20      20       --         4.038 au  C             0.50      1 F:xyz           7
                        (     109.882 eV)               0.50      1 F:xyz           8
                                                       -0.50      1 F:xyz           9
                                                       -0.50      1 F:xyz          10
    21      21       --         4.038 au  C             0.50      1 F:z2x           7
                        (     109.882 eV)              -0.50      1 F:z2x           8
                                                        0.50      1 F:z2x           9
                                                       -0.50      1 F:z2x          10
    22      22       --         4.038 au  C             0.50      1 F:x             7
                        (     109.882 eV)              -0.50      1 F:x             8
                                                        0.50      1 F:x             9
                                                       -0.50      1 F:x            10
    23      23       --         0.464 au  H             0.71      1 P:x            11
                        (      12.639 eV)              -0.71      1 P:x            12
    24      24       --         2.530 au  H             0.71      1 D:xy           11
[...]
    20     H      -0.000000  -0.209357  -0.040919
    21     H       0.259907   0.074601   0.169678
    22     H      -0.259907   0.074601  -0.169678
    23     H       0.000000  -0.209357   0.040919
    24     H       0.259907   0.074601  -0.169678
 
 Mode:    62      Frequency (cm-1):     3056.0486     Intensity (km/mol):       22.8453     Irrep: B2.u
 Index  Atom      ---- Displacements (x/y/z) ----
     1     C      -0.000000  -0.000460  -0.000564
     2     C      -0.000000  -0.000460   0.000564
     3     C       0.000000  -0.000460   0.000564
     4     C      -0.000000  -0.000460  -0.000564
     5     C      -0.000000  -0.000020   0.000000
     6     C       0.000000  -0.000020  -0.000000
     7     C      -0.000000   0.005379   0.025499
     8     C      -0.000000   0.005379  -0.025499
     9     C       0.000000   0.005379  -0.025499
    10     C       0.000000   0.005379   0.025499
    11     H      -0.000000   0.004475  -0.000000
    12     H       0.000000   0.004475   0.000000
    13     H      -0.000000  -0.209913   0.041042
    14     H      -0.259690   0.074615  -0.169632
    15     H       0.259690   0.074615  -0.169632
    16     H      -0.000000  -0.209913  -0.041042
    17     H      -0.259690   0.074615   0.169632
    18     H       0.259690   0.074615   0.169632
    19     H      -0.259690   0.074615   0.169632
    20     H       0.000000  -0.209913  -0.041042
    21     H       0.259690   0.074615   0.169632
    22     H      -0.259690   0.074615  -0.169632
    23     H      -0.000000  -0.209913   0.041042
    24     H       0.259690   0.074615  -0.169632
 
 Mode:    63      Frequency (cm-1):     3103.8494     Intensity (km/mol):       79.7747     Irrep: B3.u
 Index  Atom      ---- Displacements (x/y/z) ----
     1     C      -0.000148  -0.000000  -0.000000
     2     C      -0.000148  -0.000000   0.000000
     3     C      -0.000148  -0.000000   0.000000
     4     C      -0.000148   0.000000  -0.000000
     5     C      -0.000372  -0.000000  -0.000000
     6     C      -0.000372   0.000000  -0.000000
     7     C      -0.045849  -0.000000   0.000000
     8     C      -0.045849   0.000000   0.000000
     9     C      -0.045849   0.000000  -0.000000
    10     C      -0.045849   0.000000   0.000000
    11     H      -0.000082   0.000000  -0.000000
    12     H      -0.000082  -0.000000   0.000000
    13     H      -0.008744   0.000000  -0.000000
    14     H       0.279338  -0.083724   0.197158
    15     H       0.279338   0.083724  -0.197158
    16     H      -0.008744  -0.000000  -0.000000
    17     H       0.279338  -0.083724  -0.197158
    18     H       0.279338   0.083724   0.197158
    19     H       0.279338  -0.083724  -0.197158
    20     H      -0.008744  -0.000000  -0.000000
    21     H       0.279338   0.083724   0.197158
    22     H       0.279338  -0.083724   0.197158
    23     H      -0.008744  -0.000000   0.000000
    24     H       0.279338   0.083724  -0.197158
 
 Mode:    64      Frequency (cm-1):     3103.8698     Intensity (km/mol):        0.0000     Irrep: B2.g
 Index  Atom      ---- Displacements (x/y/z) ----
     1     C       0.000128  -0.000000  -0.000000
     2     C       0.000128   0.000000   0.000000
     3     C      -0.000128   0.000000  -0.000000
     4     C      -0.000128  -0.000000  -0.000000
     5     C       0.000000   0.000000   0.000000
     6     C       0.000000   0.000000   0.000000
     7     C       0.045873   0.000000  -0.000000
     8     C       0.045873  -0.000000  -0.000000
     9     C      -0.045873   0.000000  -0.000000
    10     C      -0.045873   0.000000  -0.000000
    11     H       0.000000  -0.000000   0.000000
    12     H       0.000000  -0.000000   0.000000
    13     H       0.008695  -0.000000   0.000000
    14     H      -0.279362   0.083739  -0.197115
    15     H      -0.279362  -0.083739   0.197115
    16     H       0.008695   0.000000   0.000000
    17     H      -0.279362   0.083739   0.197115
    18     H      -0.279362  -0.083739  -0.197115
    19     H       0.279362  -0.083739  -0.197115
    20     H      -0.008695  -0.000000  -0.000000
    21     H       0.279362   0.083739   0.197115
    22     H       0.279362  -0.083739   0.197115
    23     H      -0.008695  -0.000000   0.000000
    24     H       0.279362   0.083739  -0.197115
 
 Mode:    65      Frequency (cm-1):     3107.9202     Intensity (km/mol):        0.0000     Irrep: B1.g
 Index  Atom      ---- Displacements (x/y/z) ----
     1     C      -0.000361  -0.000000  -0.000000
     2     C       0.000361   0.000000   0.000000
     3     C      -0.000361  -0.000000  -0.000000
     4     C       0.000361   0.000000  -0.000000
     5     C      -0.000158   0.000000  -0.000000
     6     C       0.000158  -0.000000   0.000000
     7     C      -0.045866  -0.000000   0.000000
     8     C       0.045866   0.000000   0.000000
     9     C      -0.045866   0.000000  -0.000000
    10     C       0.045866  -0.000000  -0.000000
    11     H      -0.000194  -0.000000  -0.000000
    12     H       0.000194   0.000000  -0.000000
    13     H      -0.009911  -0.000000  -0.000000
    14     H       0.279615  -0.084563   0.196376
    15     H       0.279615   0.084563  -0.196376
    16     H       0.009911  -0.000000  -0.000000
    17     H      -0.279615   0.084563   0.196376
    18     H      -0.279615  -0.084563  -0.196376
    19     H       0.279615  -0.084563  -0.196376
    20     H      -0.009911  -0.000000  -0.000000
    21     H       0.279615   0.084563   0.196376
    22     H      -0.279615   0.084563  -0.196376
    23     H       0.009911   0.000000  -0.000000
    24     H      -0.279615  -0.084563   0.196376
 
 Mode:    66      Frequency (cm-1):     3108.0787     Intensity (km/mol):        0.0000     Irrep: A.u
 Index  Atom      ---- Displacements (x/y/z) ----
     1     C       0.000366  -0.000000   0.000000
     2     C      -0.000366  -0.000000  -0.000000
     3     C      -0.000366  -0.000000  -0.000000
     4     C       0.000366   0.000000   0.000000
     5     C       0.000000  -0.000000   0.000000
     6     C      -0.000000   0.000000  -0.000000
     7     C       0.045876   0.000000  -0.000000
     8     C      -0.045876  -0.000000  -0.000000
     9     C      -0.045876   0.000000  -0.000000
    10     C       0.045876  -0.000000  -0.000000
    11     H       0.000000   0.000000   0.000000
    12     H      -0.000000  -0.000000   0.000000
    13     H       0.009745  -0.000000   0.000000
    14     H      -0.279665   0.084593  -0.196296
    15     H      -0.279665  -0.084593   0.196296
    16     H      -0.009745   0.000000   0.000000
    17     H       0.279665  -0.084593  -0.196296
    18     H       0.279665   0.084593   0.196296
    19     H       0.279665  -0.084593  -0.196296
    20     H      -0.009745  -0.000000  -0.000000
    21     H       0.279665   0.084593   0.196296
    22     H      -0.279665   0.084593  -0.196296
    23     H       0.009745   0.000000  -0.000000
    24     H      -0.279665  -0.084593   0.196296
 
 Mode:    67      Frequency (cm-1):     3145.5255     Intensity (km/mol):       85.9537     Irrep: B2.u
 Index  Atom      ---- Displacements (x/y/z) ----
     1     C      -0.000000  -0.000223   0.000759
     2     C       0.000000  -0.000223  -0.000759
     3     C       0.000000  -0.000223  -0.000759
     4     C       0.000000  -0.000223   0.000759
     5     C       0.000000   0.003987  -0.000000
     6     C       0.000000   0.003987   0.000000
     7     C      -0.000000  -0.041955   0.018946
     8     C       0.000000  -0.041955  -0.018946
     9     C      -0.000000  -0.041955  -0.018946
    10     C      -0.000000  -0.041955   0.018946
    11     H      -0.000000  -0.042085  -0.000000
    12     H      -0.000000  -0.042085   0.000000
    13     H      -0.000000   0.444970  -0.076545
    14     H      -0.121665   0.027273  -0.077578
    15     H       0.121665   0.027273  -0.077578
    16     H       0.000000   0.444970   0.076545
    17     H      -0.121665   0.027273   0.077578
    18     H       0.121665   0.027273   0.077578
    19     H      -0.121665   0.027273   0.077578
    20     H      -0.000000   0.444970   0.076545
    21     H       0.121665   0.027273   0.077578
    22     H      -0.121665   0.027273  -0.077578
    23     H       0.000000   0.444970  -0.076545
    24     H       0.121665   0.027273  -0.077578
 
 Mode:    68      Frequency (cm-1):     3145.6035     Intensity (km/mol):        0.0000     Irrep: B3.g
 Index  Atom      ---- Displacements (x/y/z) ----
     1     C       0.000000   0.000312  -0.000544
     2     C       0.000000   0.000312   0.000544
     3     C       0.000000  -0.000312  -0.000544
     4     C       0.000000  -0.000312   0.000544
     5     C      -0.000000   0.000000   0.000171
     6     C       0.000000   0.000000  -0.000171
     7     C       0.000000   0.042042  -0.018937
     8     C      -0.000000   0.042042   0.018937
     9     C      -0.000000  -0.042042  -0.018937
    10     C      -0.000000  -0.042042   0.018937
    11     H       0.000000  -0.000000   0.001545
    12     H      -0.000000  -0.000000  -0.001545
    13     H       0.000000  -0.446159   0.076618
    14     H       0.121429  -0.027252   0.077359
    15     H      -0.121429  -0.027252   0.077359
    16     H      -0.000000  -0.446159  -0.076618
    17     H       0.121429  -0.027252  -0.077359
    18     H      -0.121429  -0.027252  -0.077359
    19     H      -0.121429   0.027252   0.077359
    20     H      -0.000000   0.446159   0.076618
    21     H       0.121429   0.027252   0.077359
    22     H      -0.121429   0.027252  -0.077359
    23     H       0.000000   0.446159  -0.076618
    24     H       0.121429   0.027252  -0.077359
 
 Mode:    69      Frequency (cm-1):     3146.4112     Intensity (km/mol):        3.8382     Irrep: B1.u
 Index  Atom      ---- Displacements (x/y/z) ----
     1     C       0.000000  -0.000299   0.000728
     2     C      -0.000000   0.000299   0.000728
     3     C       0.000000   0.000299   0.000728
     4     C       0.000000  -0.000299   0.000728
     5     C      -0.000000   0.000000   0.000144
     6     C       0.000000  -0.000000   0.000144
     7     C       0.000000  -0.042020   0.018498
     8     C      -0.000000   0.042020   0.018498
     9     C       0.000000   0.042020   0.018498
    10     C      -0.000000  -0.042020   0.018498
    11     H      -0.000000  -0.000000  -0.002044
    12     H      -0.000000   0.000000  -0.002044
    13     H       0.000000   0.447892  -0.077529
    14     H      -0.119463   0.025437  -0.075614
    15     H       0.119463   0.025437  -0.075614
    16     H       0.000000  -0.447892  -0.077529
    17     H       0.119463  -0.025437  -0.075614
    18     H      -0.119463  -0.025437  -0.075614
    19     H       0.119463  -0.025437  -0.075614
    20     H       0.000000  -0.447892  -0.077529
    21     H      -0.119463  -0.025437  -0.075614
    22     H      -0.119463   0.025437  -0.075614
    23     H       0.000000   0.447892  -0.077529
    24     H       0.119463   0.025437  -0.075614
 
 Mode:    70      Frequency (cm-1):     3146.4577     Intensity (km/mol):        0.0000     Irrep: A.g
 Index  Atom      ---- Displacements (x/y/z) ----
     1     C      -0.000000   0.000283  -0.001025
     2     C       0.000000  -0.000283  -0.001025
     3     C      -0.000000   0.000283   0.001025
     4     C      -0.000000  -0.000283   0.001025
     5     C       0.000000  -0.003662   0.000000
     6     C      -0.000000   0.003662   0.000000
     7     C      -0.000000   0.042010  -0.018414
     8     C       0.000000  -0.042010  -0.018414
     9     C       0.000000   0.042010   0.018414
    10     C      -0.000000  -0.042010   0.018414
    11     H       0.000000   0.038291  -0.000000
    12     H       0.000000  -0.038291  -0.000000
    13     H      -0.000000  -0.447726   0.077700
    14     H       0.118606  -0.025258   0.074996
    15     H      -0.118606  -0.025258   0.074996
    16     H      -0.000000   0.447726   0.077700
    17     H      -0.118606   0.025258   0.074996
    18     H       0.118606   0.025258   0.074996
    19     H       0.118606  -0.025258  -0.074996
    20     H       0.000000  -0.447726  -0.077700
    21     H      -0.118606  -0.025258  -0.074996
    22     H      -0.118606   0.025258  -0.074996
    23     H       0.000000   0.447726  -0.077700
    24     H       0.118606   0.025258  -0.074996
 
 Mode:    71      Frequency (cm-1):     3176.5716     Intensity (km/mol):       51.0639     Irrep: B2.u
 Index  Atom      ---- Displacements (x/y/z) ----
     1     C       0.000000   0.000799  -0.002533
     2     C       0.000000   0.000799   0.002533
     3     C      -0.000000   0.000799   0.002533
     4     C      -0.000000   0.000799  -0.002533
     5     C       0.000000  -0.060901  -0.000000
     6     C      -0.000000  -0.060901   0.000000
     7     C      -0.000000  -0.002545   0.001040
     8     C       0.000000  -0.002545  -0.001040
     9     C      -0.000000  -0.002545  -0.001040
    10     C       0.000000  -0.002545   0.001040
    11     H       0.000000   0.703187  -0.000000
    12     H      -0.000000   0.703187  -0.000000
    13     H      -0.000000   0.028133  -0.003490
    14     H      -0.005674   0.001821  -0.003195
    15     H       0.005674   0.001821  -0.003195
    16     H       0.000000   0.028133   0.003490
    17     H      -0.005674   0.001821   0.003195
    18     H       0.005674   0.001821   0.003195
    19     H      -0.005674   0.001821   0.003195
    20     H      -0.000000   0.028133   0.003490
    21     H       0.005674   0.001821   0.003195
    22     H      -0.005674   0.001821  -0.003195
    23     H       0.000000   0.028133  -0.003490
    24     H       0.005674   0.001821  -0.003195
 
 Mode:    72      Frequency (cm-1):     3178.9743     Intensity (km/mol):        0.0000     Irrep: A.g
 Index  Atom      ---- Displacements (x/y/z) ----
     1     C       0.000000   0.000251   0.002208
     2     C      -0.000000  -0.000251   0.002208
     3     C      -0.000000   0.000251  -0.002208
     4     C      -0.000000  -0.000251  -0.002208
     5     C       0.000000   0.061103  -0.000000
     6     C       0.000000  -0.061103   0.000000
     7     C       0.000000   0.002300  -0.000576
     8     C      -0.000000  -0.002300  -0.000576
     9     C      -0.000000   0.002300   0.000576
    10     C      -0.000000  -0.002300   0.000576
    11     H      -0.000000  -0.703278   0.000000
    12     H       0.000000   0.703278  -0.000000
    13     H      -0.000000  -0.028338   0.002787
    14     H       0.002140  -0.001067   0.000536
    15     H      -0.002140  -0.001067   0.000536
    16     H      -0.000000   0.028338   0.002787
    17     H      -0.002140   0.001067   0.000536
    18     H       0.002140   0.001067   0.000536
    19     H       0.002140  -0.001067  -0.000536
    20     H      -0.000000  -0.028338  -0.002787
    21     H      -0.002140  -0.001067  -0.000536
    22     H      -0.002140   0.001067  -0.000536
    23     H       0.000000   0.028338  -0.002787
    24     H       0.002140   0.001067  -0.000536

PES point character: Geometry corresponds to a local minimum on the PES.




 ============================
 Statistical Thermal Analysis  ***  ideal gas assumed  ***
 ============================
  
 Pressure:                  1.000000 atm.
 Temperature:             298.150000 K



 Moments of Inertia [amu*bohr^2] and principal axis
 ==================================================

         811.8710       1721.7714       2489.3889
 ------------------------------------------------
           0.0000          0.0000          1.0000
           0.0000         -1.0000          0.0000
           1.0000          0.0000          0.0000


 The rotational contribution to the molecular entropy includes
 a term, dependent on the symmetry number sigma. The results 
 reported below were computed using sigma = 4, determined from
 the point group symmetry of the input geometry (D(2H)). 
 If this is not the correct symmetry, try symmetrizing the molecule before
 running the calculation (note: linear molecules should be aligned along one
 of the Cartesian axes).
 Contributions from frequencies below 20 1/cm are not included in vibrational sums.
 Their contributions, if any, are reported separately.


     Temp                                                        Transl      Rotat     Vibrat     Total
     ----                                                        ------      -----     ------     -----

     298.15   Entropy (cal/mol-K):                               40.593     26.878     27.835     95.306
              Nuclear Internal Energy (kcal/mol):                 0.889      0.889    137.967    139.744
              Constant Volume Heat Capacity (cal/mol-K):          2.981      2.981     34.727     40.689
          (c) Constant Volume Heat Capacity (cal/mol-K):          2.981      2.981     33.818     39.780

       Summary of energy terms
                                                   hartree              eV         kcal/mol           kJ/mol
                                      --------------------     -----------       ----------      -----------
      Energy from Engine:               -6.973427143374653       -189.7566         -4375.89        -18308.73
      Nuclear Internal Energy:           0.222696229024400          6.0599           139.74           584.69
  (c) Nuclear Internal Energy:           0.222160391937413          6.0453           139.41           583.28
      Internal Energy U:                -6.750730914350253       -183.6967         -4236.15        -17724.04
      pV/n = RT:                         0.000944186013486          0.0257             0.59             2.48
      Enthalpy H:                       -6.749786728336767       -183.6710         -4235.56        -17721.56
      -T*S:                             -0.045282769127883         -1.2322           -28.42          -118.89
  (c) -T*S:                             -0.045174691254804         -1.2293           -28.35          -118.61
      Gibbs free energy:                -6.795069497464650       -184.9032         -4263.97        -17840.45
 
 
 
  (c) The properties marked with this symbol have been corrected using 'low vibrational frequency free rotor
      interpolation corrections'. For those terms all positive frequencies are used (also ones below 20 1/cm),
      but the contribution to the partition function of small vibrational frequencies is modified as described
      in the following paper:
      S. Grimme, 'Supramolecular Binding Thermodynamics by Dispersion-Corrected Density Functional Theory'
      (Chem. Eur. J. 2012, 18, 9955-9964)
      Configuration: Dampener Frequency          :   100.000 1/cm
                     Dampener Alpha              :     4.000
                     Averaging Moment of Inertia : 1.000E-44 kg m2

--------------
Atomic charges
--------------
  Index   Atom    Charge
      1      C    0.1013
      2      C    0.1013
      3      C    0.1013
      4      C    0.1013
      5      C    0.1017
      6      C    0.1017
      7      C    0.3265
      8      C    0.3265
      9      C    0.3265
     10      C    0.3265
     11      H   -0.1360
     12      H   -0.1360
     13      H   -0.1708
     14      H   -0.1199
     15      H   -0.1199
     16      H   -0.1708
     17      H   -0.1199
     18      H   -0.1199
     19      H   -0.1199
     20      H   -0.1708
     21      H   -0.1199
     22      H   -0.1199
     23      H   -0.1708
     24      H   -0.1199


Dipole moment vector    (Debye):    -0.00000000    0.00000000    0.00000000
              magnitude (Debye):     0.00000000


Final PES point is a local minimum. Geometry optimization successful!


AMS application finished. Exiting.
NORMAL TERMINATION
     Total cpu time:   26937.52
  Total system time:     202.15
 Total elapsed time:   29024.13
