 argument  1 = /lustre/ukt/milias/work/projects/open-collection/theoretical_chemistry/projects/adsorbate_on_surface/on_quartz/quartz/nwchem/Quartz-G_molecular_slab_153atoms/ecp/At_on_quartz/AtQ.geopt_crenbl_ecp_revpbe-d3bj_rodft.nw



============================== echo of input deck ==============================
echo

start molecule

memory total 180 gb

print low

title "At@Quartz ecp"
charge 0

geometry units angstroms print xyz autosym
  load format xyz AtQgeom.xyz
end

basis
 * library crenbl_ecp
end

ecp
  Si library crenbl_ecp
  At library crenbl_ecp
end

dft
  rodft
  mult 2
  xc revpbe cpbe96
  maxiter 500
end

driver
  maxiter 999
  xyz AtQgeomconv
end

task dft optimize

#task dft frequencies

================================================================================


                                         
                                         


             Northwest Computational Chemistry Package (NWChem) 7.2.0
             --------------------------------------------------------


                    Environmental Molecular Sciences Laboratory
                       Pacific Northwest National Laboratory
                                Richland, WA 99352

                              Copyright (c) 1994-2022
                       Pacific Northwest National Laboratory
                            Battelle Memorial Institute

             NWChem is an open-source computational chemistry package
                        distributed under the terms of the
                      Educational Community License (ECL) 2.0
             A copy of the license is included with this distribution
                              in the LICENSE.TXT file

                                  ACKNOWLEDGMENT
                                  --------------

            This software and its documentation were developed at the
            EMSL at Pacific Northwest National Laboratory, a multiprogram
            national laboratory, operated for the U.S. Department of Energy
            by Battelle under Contract Number DE-AC05-76RL01830. Support
            for this work was provided by the Department of Energy Office
            of Biological and Environmental Research, Office of Basic
            Energy Sciences, and the Office of Advanced Scientific Computing.


           Job information
           ---------------

    hostname        = lxbk0896
    program         = /lustre/ukt/milias/work/software/nwchem/nwchem-7.2.0_gnu_openmpi_openblas/bin/LINUX64/nwchem
    date            = Fri Aug 11 19:42:35 2023

    compiled        = Sun_Jul_02_11:55:06_2023
    source          = /lustre/ukt/milias/work/software/nwchem/nwchem-7.2.0_gnu_openmpi_openblas
    nwchem branch   = 7.2.0
    nwchem revision = v7.2.0-beta1-192-gd0d141fdfb
    ga revision     = 5.8.0
    use scalapack   = F
    input           = /lustre/ukt/milias/work/projects/open-collection/theoretical_chemistry/projects/adsorbate_on_surface/on_quartz/quartz/nwchem/Quartz-G_molecular_slab_153atoms/ecp/At_on_quartz/AtQ.geopt_crenbl_ecp_revpbe-d3bj_rodft.nw
    prefix          = molecule.
    data base       = ./molecule.db
    status          = startup
    nproc           =      140
    time left       =     -1s



           Memory information
           ------------------

    heap     = 6039797758 doubles =  46080.0 Mbytes
    stack    = 6039797755 doubles =  46080.0 Mbytes
    global   = ********** doubles =  92160.0 Mbytes (distinct from heap & stack)
    total    = ********** doubles = 184320.0 Mbytes
    verify   = yes
    hardfail = no 


           Directory information
           ---------------------

  0 permanent = .
  0 scratch   = .




                                NWChem Input Module
                                -------------------


                                   At@Quartz ecp
                                   -------------

 Scaling coordinates for geometry "geometry" by  1.889725989
 (inverse scale =  0.529177249)


          ------
          auto-z
          ------
  autoz: The atoms group into disjoint clusters
 cluster   1:    1    2    3    4    5    6    7    8    9   10   11
                12   13   14   15   16   17   18   19   20   21   22
                23   24   25   26   27   28   29   30   31   32   33
                34   35   36   37   38   39   40   41   42   43   44
                45   46   47   48   49   50   51   52   53   54   55
                56   57   58   59   60   61   62   63   64   65   66
                67   68   69   70   71   72   73   74   75   76   77
                78   79   80   81   82   83   84   85   86   87   88
                89   90   91   92   93   94   95   96   97   98   99
               100  101  102  103  104  105  106  107  108  109  110
               111  112  113  114  115  116  117  118  119  120  121
               122  123  124  125  126  127  128  129  130  131  132
               133  134  135  136  137  138  139  140  141  142  143
               144  145  146  147  148  149  150  151  152  153
 cluster   2:  154
 Connecting clusters   1   2 via atoms  124  154 r = 3.67
  autoz: regenerating connections with new bonds
  no constraints, skipping    0.0000000000000000     
  no constraints, skipping    0.0000000000000000     


                             Geometry "geometry" -> ""
                             -------------------------

 Output coordinates in angstroms (scale by  1.889725989 to convert to a.u.)

  No.       Tag          Charge          X              Y              Z
 ---- ---------------- ---------- -------------- -------------- --------------
    1 O                    8.0000    -3.28108695     1.64092916    -4.86354833
    2 H                    1.0000     1.95626967    -5.77958242     0.08127987
    3 H                    1.0000    -5.76814072     9.58821740     1.78292058
    4 Si                  14.0000     1.03068017    -8.59575364     3.30320760
    5 Si                  14.0000    -0.33357216    -7.67646639    -0.94869902
    6 Si                  14.0000    -1.21056457    -4.12085933    -5.15470464
    7 H                    1.0000    -1.50700527     6.24798328    -0.96350394
    8 Si                  14.0000     3.12519024    -4.87249153     2.10270380
    9 Si                  14.0000    -0.02078003    -2.41051225    -1.07396016
   10 Si                  14.0000    -3.11867831     0.59322771    -3.59511229
   11 H                    1.0000     2.58228681     3.27563483    -2.21013939
   12 Si                  14.0000     4.83166534    -0.47564798    -0.46572636
   13 Si                  14.0000     0.56573994     2.42950916    -0.50769183
   14 Si                  14.0000    -3.88011078     4.71513026    -0.47699720
   15 H                    1.0000     1.60576986    -7.82942052     0.70940104
   16 Si                  14.0000     4.71849636     4.58640676    -2.37973107
   17 Si                  14.0000     0.78844769     7.16114953    -0.55999114
   18 Si                  14.0000    -3.51150300     8.41221145     2.38832648
   19 O                    8.0000     3.30134028    -0.59947583    -1.14612651
   20 O                    8.0000    -3.46364825    -5.01792579     3.73063400
   21 O                    8.0000    -6.20006356    -4.79980336    -1.41557300
   22 O                    8.0000     1.58213044     6.37683429    -1.78259331
   23 O                    8.0000    -0.58189761     2.73010467    -1.69077522
   24 O                    8.0000     0.93884364    -1.88659446     4.80125952
   25 O                    8.0000    -4.61810468    -0.99240073     2.29244899
   26 O                    8.0000    -2.52505101     8.26387165     1.07278010
   27 O                    8.0000    -4.73037083     6.01723824    -1.03653542
   28 O                    8.0000     3.64261339     2.41507462     3.62054867
   29 O                    8.0000    -0.83872263     2.48364239     4.07120500
   30 H                    1.0000     2.61462943    -1.29279894    -1.20843936
   31 H                    1.0000     5.93706545     4.26606490    -4.66793648
   32 O                    8.0000    -2.34336089     4.68595816    -1.12460395
   33 O                    8.0000    -0.17132606    -1.82289037    -2.62400079
   34 O                    8.0000     0.99098801    -5.00033243     5.81657038
   35 O                    8.0000     5.31405618     1.09848321    -0.32054828
   36 Si                  14.0000     4.24580368     3.67720912     2.73843970
   37 Si                  14.0000    -0.77761655     4.16187497     3.98301864
   38 O                    8.0000    -2.06804904    -4.75370592     1.40155630
   39 O                    8.0000    -4.54779228    -3.17178221    -2.84939263
   40 H                    1.0000    -5.11776535     6.84264412    -1.31664844
   41 H                    1.0000     3.16885200    -7.65902556     2.26958093
   42 Si                  14.0000     0.69064846    -5.51142167     4.26487036
   43 O                    8.0000     5.44125306     3.65517096    -1.19528140
   44 O                    8.0000     1.22170864     6.32070458     0.83844004
   45 O                    8.0000     3.13892823     4.03489941    -2.45796724
   46 Si                  14.0000    -2.00489535    -4.91611178    -0.25078639
   47 O                    8.0000     0.35310757     4.61403953     2.85800526
   48 H                    1.0000     2.06066808     5.66344802    -2.23466582
   49 H                    1.0000    -5.76806664     4.27852852     4.08602813
   50 Si                  14.0000    -4.00049732    -2.53683555    -4.28489925
   51 O                    8.0000     2.91987539     4.48818163     2.10854578
   52 O                    8.0000    -0.86440370     6.95278970    -0.72568821
   53 O                    8.0000    -1.32501125    -6.38170525    -0.65195007
   54 O                    8.0000    -3.78306281     4.80732852     1.18626106
   55 O                    8.0000     5.51628642    -1.69083744     3.59693350
   56 O                    8.0000    -4.95510306     9.14298790     2.00254329
   57 O                    8.0000    -2.65257848    -3.39697810    -4.76475024
   58 H                    1.0000     1.66377245   -10.49825482     4.96717046
   59 O                    8.0000     0.30877337    -0.51724006     2.52051261
   60 H                    1.0000    -3.34642629     2.28474822    -5.56421953
   61 H                    1.0000     2.50851255     0.99692197    -1.32245155
   62 O                    8.0000     4.70766026     6.18589944    -1.95618948
   63 O                    8.0000    -4.40244620     0.90117488     0.36210564
   64 H                    1.0000     5.68533228     5.30560387     4.18479059
   65 O                    8.0000     3.83546729    -3.39265016     2.25080025
   66 O                    8.0000     1.17161733     8.76568821    -0.44530398
   67 H                    1.0000    -0.18610544     5.18364602     6.30611406
   68 O                    8.0000    -2.77727106     9.25461558     3.61873236
   69 H                    1.0000    -5.86483739    -2.62934687    -6.10796592
   70 H                    1.0000    -7.49324364     1.18722796    -1.36170068
   71 H                    1.0000     8.47170370     2.60796635     0.32122589
   72 H                    1.0000    -4.19628481    -5.46920286     4.14147662
   73 H                    1.0000    -6.95745158    -5.37630741    -1.46312955
   74 O                    8.0000     1.93168546    -5.05461668     3.24350157
   75 O                    8.0000    -0.97795423    -3.74071457    -0.83159940
   76 H                    1.0000     0.71504486    -2.68317791     5.28281203
   77 H                    1.0000    -4.79423849    -1.80673720     2.76295725
   78 O                    8.0000    -4.94290114     4.39296757     3.61761571
   79 O                    8.0000    -2.27159916     4.65656680     3.44704870
   80 O                    8.0000     5.50052299     4.36441926    -3.82660447
   81 O                    8.0000     1.05827043    -7.52198297    -0.04724027
   82 H                    1.0000     5.17230030    -6.38858416     2.48143111
   83 O                    8.0000    -3.52155411    -0.96435042    -4.02022452
   84 O                    8.0000    -2.21116931    -2.67604199     3.10935308
   85 O                    8.0000    -5.10479098    -2.58022116    -0.23790616
   86 O                    8.0000    -0.82478225    -5.29405376    -4.05957551
   87 H                    1.0000     3.06393628     1.75684958     4.03372726
   88 O                    8.0000     1.43458317     0.82781292     4.48869077
   89 O                    8.0000    -4.06760387     1.63542835     2.94352812
   90 H                    1.0000    -0.13483521    -2.10227844    -3.56489241
   91 O                    8.0000    -0.74210333    -4.88259388     3.73072894
   92 O                    8.0000     5.16699024     4.70027600     3.66264372
   93 O                    8.0000    -0.41952485     4.79191203     5.46866802
   94 O                    8.0000     4.27801330    -6.08125174     2.33442643
   95 O                    8.0000    -3.51493304    -4.64235970    -0.86579381
   96 H                    1.0000    -1.33659023     1.68637700     3.87866613
   97 O                    8.0000     5.14314886     3.13000461     1.44288775
   98 O                    8.0000     1.57302636    -2.83112274    -0.78674023
   99 H                    1.0000    -0.98802590     2.13277143    -2.36108949
  100 H                    1.0000     1.19053082    -4.88087013     6.74254201
  101 O                    8.0000    -5.17671529    -2.60092267    -5.44866677
  102 H                    1.0000    -1.91183065     7.95115906     0.37744974
  103 O                    8.0000     4.66992485    -1.14045066     1.05616030
  104 O                    8.0000     5.92547590    -1.33919301    -1.36353416
  105 H                    1.0000     6.22620613    -1.51005694     4.20790470
  106 Si                  14.0000     5.87688453     2.63288451     0.03803358
  107 O                    8.0000    -0.08610246     1.27565386     0.50537942
  108 O                    8.0000    -0.47927268    -1.27496439     0.04129437
  109 O                    8.0000     2.89137154    -1.08248911     3.13748470
  110 Si                  14.0000     1.39497044     4.85314641     1.57994420
  111 H                    1.0000    -0.64415806    -5.97566185    -3.40425133
  112 H                    1.0000    -4.31967199     2.48164938     3.33862516
  113 H                    1.0000    -2.13398305    -1.72691040     3.00492600
  114 Si                  14.0000    -3.70756749     5.18331150     2.80237811
  115 O                    8.0000     0.95240022     3.73943672     0.40816390
  116 O                    8.0000     1.46330074    -9.79457884     4.35528189
  117 O                    8.0000    -1.52779285     0.54849815    -3.06172962
  118 H                    1.0000    -1.62353917     4.07256777    -1.41762457
  119 O                    8.0000    -4.59931067     3.25860061    -0.85249948
  120 H                    1.0000     6.56785486    -1.79750326    -1.89843802
  121 H                    1.0000     0.40075040    -7.95183008    -3.42686100
  122 Si                  14.0000     4.26511252    -1.79272948     2.52239787
  123 H                    1.0000     2.10510333    -3.53448855    -0.36406830
  124 H                    1.0000     0.67872835    -2.41881843    -5.55328457
  125 O                    8.0000    -0.19678102    -9.04925866     2.29780772
  126 Si                  14.0000    -0.62696650    -0.11205045     1.21441307
  127 O                    8.0000    -2.20708184     0.05534343     1.73294163
  128 O                    8.0000     2.32966371    -8.14789850     2.31147178
  129 O                    8.0000    -1.10606375    -9.10061173    -0.52246648
  130 Si                  14.0000    -4.94825030     1.64326410    -1.03253313
  131 H                    1.0000    -0.87422784    -0.14778999    -2.84253105
  132 O                    8.0000     7.52457240     2.58463702     0.21755322
  133 O                    8.0000     2.43619802    -5.10457846     0.59516949
  134 O                    8.0000     0.03166376    -7.71278400    -2.57762923
  135 O                    8.0000    -6.56474123     1.36495957    -1.23692316
  136 O                    8.0000     0.67440279    -7.17380217     4.11027335
  137 O                    8.0000    -1.26559481    -4.73678319    -6.69644506
  138 O                    8.0000    -0.02866055    -2.90948171    -5.13285205
  139 Si                  14.0000    -2.14018184    -4.32361780     3.01264553
  140 Si                  14.0000     1.40822076    -0.67830536     3.77335420
  141 H                    1.0000    -0.74450722    -9.19720114     1.52084283
  142 H                    1.0000    -1.64308197    -9.88916562    -0.58593064
  143 Si                  14.0000    -4.88444135    -3.79568355    -1.34038377
  144 Si                  14.0000    -3.84704845     0.41698640     1.84801911
  145 H                    1.0000    -1.36717585    -5.09625093    -7.57390574
  146 O                    8.0000    -3.81492604     6.83310972     2.90012466
  147 O                    8.0000     1.90905355     1.77268153    -1.24142781
  148 H                    1.0000    -5.10661643    -1.88884781     0.43121321
  149 O                    8.0000    -4.08004969     1.07365086    -2.32922720
  150 H                    1.0000     0.86046775     1.59985014     4.62408999
  151 H                    1.0000    -2.30599129     9.71865622     4.30438685
  152 H                    1.0000     1.31308406     9.70307174    -0.34609551
  153 H                    1.0000     4.47185719     7.06644290    -1.67382627
  154 At                  85.0000     2.43251767     0.80848652    -5.48659782

      Atomic Mass 
      ----------- 

      O                 15.994910
      H                  1.007825
      Si                27.976930
      At               210.987500


 Effective nuclear repulsion energy (a.u.)   48965.6681748153

            Nuclear Dipole moment (a.u.) 
            ----------------------------
        X                 Y               Z
 ---------------- ---------------- ----------------
     0.0000000000     0.0000000000    -0.0000000000



                                Z-matrix (autoz)
                                -------- 

 Units are Angstrom for bonds and degrees for angles

      Type          Name      I     J     K     L     M      Value
      ----------- --------  ----- ----- ----- ----- ----- ----------
    1 Stretch                  1    10                       1.65317
    2 Stretch                  1    60                       0.95379
    3 Stretch                  2   133                       0.97470
    4 Stretch                  3    56                       0.95262
    5 Stretch                  4   116                       1.65264
    6 Stretch                  4   125                       1.65020
    7 Stretch                  4   128                       1.69454
    8 Stretch                  4   136                       1.67339
    9 Stretch                  5    53                       1.65753
   10 Stretch                  5    81                       1.66545
   11 Stretch                  5   129                       1.67529
   12 Stretch                  5   134                       1.66977
   13 Stretch                  6    57                       1.65996
   14 Stretch                  6    86                       1.65061
   15 Stretch                  6   137                       1.66113
   16 Stretch                  6   138                       1.69258
   17 Stretch                  7    52                       0.98298
   18 Stretch                  8    65                       1.64814
   19 Stretch                  8    74                       1.66104
   20 Stretch                  8    94                       1.68636
   21 Stretch                  8   133                       1.67369
   22 Stretch                  9    33                       1.66451
   23 Stretch                  9    75                       1.65661
   24 Stretch                  9    98                       1.67321
   25 Stretch                  9   108                       1.65634
   26 Stretch                 10    83                       1.66405
   27 Stretch                 10   117                       1.67852
   28 Stretch                 10   149                       1.66057
   29 Stretch                 11    45                       0.97353
   30 Stretch                 12    19                       1.67934
   31 Stretch                 12    35                       1.65278
   32 Stretch                 12   103                       1.66861
   33 Stretch                 12   104                       1.65777
   34 Stretch                 13    23                       1.67544
   35 Stretch                 13   107                       1.66811
   36 Stretch                 13   115                       1.64445
   37 Stretch                 13   147                       1.66562
   38 Stretch                 14    27                       1.65273
   39 Stretch                 14    32                       1.66789
   40 Stretch                 14    54                       1.66864
   41 Stretch                 14   119                       1.66725
   42 Stretch                 15    81                       0.98325
   43 Stretch                 16    43                       1.67108
   44 Stretch                 16    45                       1.67491
   45 Stretch                 16    62                       1.65465
   46 Stretch                 16    80                       1.65960
   47 Stretch                 17    22                       1.65525
   48 Stretch                 17    44                       1.68810
   49 Stretch                 17    52                       1.67415
   50 Stretch                 17    66                       1.65364
   51 Stretch                 18    26                       1.65099
   52 Stretch                 18    56                       1.66338
   53 Stretch                 18    68                       1.66212
   54 Stretch                 18   146                       1.68747
   55 Stretch                 19    30                       0.97783
   56 Stretch                 20    72                       0.95352
   57 Stretch                 20   139                       1.65805
   58 Stretch                 21    73                       0.95302
   59 Stretch                 21   143                       1.65674
   60 Stretch                 22    48                       0.97072
   61 Stretch                 23    99                       0.98543
   62 Stretch                 24    76                       0.95735
   63 Stretch                 24   140                       1.65435
   64 Stretch                 25    77                       0.95684
   65 Stretch                 25   144                       1.66686
   66 Stretch                 26   102                       0.97842
   67 Stretch                 27    40                       0.95385
   68 Stretch                 28    36                       1.65376
   69 Stretch                 28    87                       0.96894
   70 Stretch                 29    37                       1.68166
   71 Stretch                 29    96                       0.95947
   72 Stretch                 31    80                       0.95293
   73 Stretch                 32   118                       0.99008
   74 Stretch                 33    90                       0.98217
   75 Stretch                 34    42                       1.66108
   76 Stretch                 34   100                       0.95473
   77 Stretch                 35   106                       1.67324
   78 Stretch                 36    51                       1.67706
   79 Stretch                 36    92                       1.65813
   80 Stretch                 36    97                       1.66827
   81 Stretch                 37    47                       1.65790
   82 Stretch                 37    79                       1.66252
   83 Stretch                 37    93                       1.65298
   84 Stretch                 38    46                       1.66151
   85 Stretch                 38   139                       1.66907
   86 Stretch                 39    50                       1.66234
   87 Stretch                 39   143                       1.66724
   88 Stretch                 41   128                       0.97211
   89 Stretch                 42    74                       1.67094
   90 Stretch                 42    91                       1.65333
   91 Stretch                 42   136                       1.66963
   92 Stretch                 43   106                       1.66009
   93 Stretch                 44   110                       1.65335
   94 Stretch                 46    53                       1.66467
   95 Stretch                 46    75                       1.66539
   96 Stretch                 46    95                       1.65330
   97 Stretch                 47   110                       1.66616
   98 Stretch                 49    78                       0.95572
   99 Stretch                 50    57                       1.66943
  100 Stretch                 50    83                       1.66498
  101 Stretch                 50   101                       1.65588
  102 Stretch                 51   110                       1.65468
  103 Stretch                 54   114                       1.66099
  104 Stretch                 55   105                       0.95391
  105 Stretch                 55   122                       1.65241
  106 Stretch                 58   116                       0.95381
  107 Stretch                 59   126                       1.65701
  108 Stretch                 59   140                       1.67462
  109 Stretch                 61   147                       0.98373
  110 Stretch                 62   153                       0.95430
  111 Stretch                 63   130                       1.67141
  112 Stretch                 63   144                       1.65857
  113 Stretch                 64    92                       0.95275
  114 Stretch                 65   122                       1.67872
  115 Stretch                 66   152                       0.95318
  116 Stretch                 67    93                       0.95355
  117 Stretch                 68   151                       0.95266
  118 Stretch                 69   101                       0.95341
  119 Stretch                 70   135                       0.95356
  120 Stretch                 71   132                       0.95307
  121 Stretch                 78   114                       1.67789
  122 Stretch                 79   114                       1.65984
  123 Stretch                 82    94                       0.95698
  124 Stretch                 84   113                       0.95797
  125 Stretch                 84   139                       1.65194
  126 Stretch                 85   143                       1.65571
  127 Stretch                 85   148                       0.96214
  128 Stretch                 86   111                       0.96263
  129 Stretch                 88   140                       1.66757
  130 Stretch                 88   150                       0.97159
  131 Stretch                 89   112                       0.96733
  132 Stretch                 89   144                       1.65330
  133 Stretch                 91   139                       1.66815
  134 Stretch                 95   143                       1.67859
  135 Stretch                 97   106                       1.66106
  136 Stretch                 98   123                       0.97800
  137 Stretch                103   122                       1.65505
  138 Stretch                104   120                       0.95332
  139 Stretch                106   132                       1.65814
  140 Stretch                107   126                       1.64954
  141 Stretch                108   126                       1.65843
  142 Stretch                109   122                       1.66431
  143 Stretch                109   140                       1.66356
  144 Stretch                110   115                       1.67609
  145 Stretch                114   146                       1.65617
  146 Stretch                117   131                       0.97980
  147 Stretch                119   130                       1.66237
  148 Stretch                121   134                       0.95633
  149 Stretch                124   154                       3.67365
  150 Stretch                124   138                       0.95808
  151 Stretch                125   141                       0.96206
  152 Stretch                126   127                       1.67142
  153 Stretch                127   144                       1.68331
  154 Stretch                129   142                       0.95616
  155 Stretch                130   135                       1.65296
  156 Stretch                130   149                       1.66122
  157 Stretch                137   145                       0.95366
  158 Bend                     1    10    83               111.92558
  159 Bend                     1    10   117               110.72094
  160 Bend                     1    10   149               110.16220
  161 Bend                     2   133     8               140.67949
  162 Bend                     3    18    26               111.80463
  163 Bend                     3    18    68               108.93970
  164 Bend                     3    18   146               109.62069
  165 Bend                     4   125   141               163.29133
  166 Bend                     4   128    41               145.07366
  167 Bend                     4   136    42               152.70255
  168 Bend                     5    53    46               167.20172
  169 Bend                     5    81    15               148.52531
  170 Bend                     5   129   142               160.59076
  171 Bend                     5   134   121               162.96965
  172 Bend                     6    57    50               173.51960
  173 Bend                     6   138   124               151.21626
  174 Bend                     7    52    17               139.34039
  175 Bend                     8    65   122               168.68832
  176 Bend                     8    74    42               169.56124
  177 Bend                     8    94    82               152.89025
  178 Bend                     9    33    90               142.02747
  179 Bend                     9    75    46               166.91330
  180 Bend                     9    98   123               140.64265
  181 Bend                     9   108   126               169.01362
  182 Bend                    10    83    50               173.86381
  183 Bend                    10   117   131               136.23988
  184 Bend                    10   130    63               108.88997
  185 Bend                    10   130   119               105.98088
  186 Bend                    10   130   135               112.97482
  187 Bend                    11    45    16               141.64193
  188 Bend                    12    19    30               135.89507
  189 Bend                    12    35   106               172.04900
  190 Bend                    12   103   122               171.39638
  191 Bend                    13    23    99               130.83452
  192 Bend                    13   107   126               166.18950
  193 Bend                    13   115   110               168.73923
  194 Bend                    13   147    61               147.00507
  195 Bend                    14    27    40               171.94077
  196 Bend                    14    32   118               142.71420
  197 Bend                    14    54   114               170.06277
  198 Bend                    14   119   130               164.54287
  199 Bend                    16    43   106               169.49480
  200 Bend                    16    62   153               165.76754
  201 Bend                    17    22    48               158.21599
  202 Bend                    17    44   110               147.17627
  203 Bend                    18    26   102               165.80475
  204 Bend                    18   146   114               154.50464
  205 Bend                    19    12    35               111.82577
  206 Bend                    19    12   103               104.58556
  207 Bend                    19    12   104               110.08587
  208 Bend                    20   139    38               110.15626
  209 Bend                    20   139    84               110.97696
  210 Bend                    20   139    91               110.01427
  211 Bend                    21   143    39               110.24728
  212 Bend                    21   143    85               111.68265
  213 Bend                    21   143    95               110.79411
  214 Bend                    22    17    44               104.64966
  215 Bend                    22    17    52               109.95720
  216 Bend                    22    17    66               113.57122
  217 Bend                    23    13   107               106.57567
  218 Bend                    23    13   115               114.29371
  219 Bend                    23    13   147               108.18677
  220 Bend                    24   140    59               110.41495
  221 Bend                    24   140    88               113.42881
  222 Bend                    24   140   109               108.23991
  223 Bend                    25   144    63               109.31782
  224 Bend                    25   144    89               112.62870
  225 Bend                    25   144   127               106.69296
  226 Bend                    26    18    56               111.91399
  227 Bend                    26    18    68               111.80562
  228 Bend                    26    18   146               105.36854
  229 Bend                    27    14    32               110.87532
  230 Bend                    27    14    54               108.89606
  231 Bend                    27    14   119               112.96113
  232 Bend                    28    36    51               106.32122
  233 Bend                    28    36    92               112.09961
  234 Bend                    28    36    97               111.10532
  235 Bend                    29    37    47               109.42326
  236 Bend                    29    37    79               106.33197
  237 Bend                    29    37    93               109.94492
  238 Bend                    31    16    43               110.53532
  239 Bend                    31    16    45               111.01701
  240 Bend                    31    16    62               110.23221
  241 Bend                    32    14    54               109.53652
  242 Bend                    32    14   119               107.14094
  243 Bend                    33     9    75               111.55852
  244 Bend                    33     9    98               109.55737
  245 Bend                    33     9   108               111.09736
  246 Bend                    34    42    74               110.64628
  247 Bend                    34    42    91               109.96572
  248 Bend                    34    42   136               113.24127
  249 Bend                    35    12   103               109.12529
  250 Bend                    35    12   104               110.55565
  251 Bend                    35   106    43               108.49516
  252 Bend                    35   106    97               107.88520
  253 Bend                    35   106   132               109.31540
  254 Bend                    36    28    87               164.52272
  255 Bend                    36    51   110               162.79758
  256 Bend                    36    97   106               173.01180
  257 Bend                    37    29    96               146.88606
  258 Bend                    37    47   110               170.44500
  259 Bend                    37   114    54               108.45044
  260 Bend                    37   114    78               109.39337
  261 Bend                    37   114   146               110.04175
  262 Bend                    38    46    53               109.95232
  263 Bend                    38    46    75               107.53471
  264 Bend                    38    46    95               108.60464
  265 Bend                    38   139    84               108.38295
  266 Bend                    38   139    91               107.03450
  267 Bend                    39    50    57               108.49619
  268 Bend                    39    50    83               108.55247
  269 Bend                    39    50   101               110.99350
  270 Bend                    39   143    85               110.78317
  271 Bend                    39   143    95               106.25486
  272 Bend                    42    34   100               169.20409
  273 Bend                    42    91   139               173.12199
  274 Bend                    43    16    45               104.92199
  275 Bend                    43    16    62               111.10582
  276 Bend                    43    16    80               109.85227
  277 Bend                    43   106    97               109.15462
  278 Bend                    43   106   132               111.04557
  279 Bend                    44    17    52               105.86779
  280 Bend                    44    17    66               111.47890
  281 Bend                    44   110    47               113.94577
  282 Bend                    44   110    51               115.82526
  283 Bend                    44   110   115               104.39383
  284 Bend                    45    16    62               108.90981
  285 Bend                    45    16    80               111.07705
  286 Bend                    46    38   139               170.66959
  287 Bend                    46    95   143               159.04576
  288 Bend                    47    37    79               108.23806
  289 Bend                    47    37    93               110.98866
  290 Bend                    47   110    51               107.43156
  291 Bend                    47   110   115               106.00977
  292 Bend                    49    78   114               158.46655
  293 Bend                    50    39   143               172.30835
  294 Bend                    51    36    92               110.50102
  295 Bend                    51    36    97               106.98994
  296 Bend                    51   110   115               108.67017
  297 Bend                    52    17    66               110.87871
  298 Bend                    53     5    81               109.30009
  299 Bend                    53     5   129               110.04009
  300 Bend                    53     5   134               108.81270
  301 Bend                    53    46    75               106.58774
  302 Bend                    53    46    95               115.41444
  303 Bend                    54    14   119               107.32882
  304 Bend                    54   114    78               109.43013
  305 Bend                    54   114    79               110.20542
  306 Bend                    54   114   146               106.25826
  307 Bend                    55   122    65               110.96315
  308 Bend                    55   122   103               111.50582
  309 Bend                    55   122   109               110.99851
  310 Bend                    56    18    68               109.41447
  311 Bend                    56    18   146               108.99029
  312 Bend                    57     6    86               110.92375
  313 Bend                    57     6   137               110.54534
  314 Bend                    57     6   138               106.94577
  315 Bend                    57    50    83               107.46023
  316 Bend                    57    50   101               110.58371
  317 Bend                    58     4   125               111.66323
  318 Bend                    58     4   128               112.36279
  319 Bend                    58     4   136               111.35724
  320 Bend                    59   126   107               111.06096
  321 Bend                    59   126   108               109.62154
  322 Bend                    59   126   127               108.28977
  323 Bend                    59   140    88               104.14864
  324 Bend                    59   140   109               108.82884
  325 Bend                    60    10    83               113.16526
  326 Bend                    60    10   117               109.89246
  327 Bend                    60    10   149               109.73351
  328 Bend                    62    16    80               110.82686
  329 Bend                    63   130   119               105.81406
  330 Bend                    63   130   135               110.35100
  331 Bend                    63   130   149               109.17212
  332 Bend                    63   144    89               109.50106
  333 Bend                    63   144   127               109.13020
  334 Bend                    64    36    28               112.43514
  335 Bend                    64    36    51               110.02367
  336 Bend                    64    36    97               109.76929
  337 Bend                    65     8    74               110.26677
  338 Bend                    65     8    94               109.67214
  339 Bend                    65     8   133               112.51051
  340 Bend                    65   122   103               107.15051
  341 Bend                    65   122   109               104.78873
  342 Bend                    67    37    29               110.65869
  343 Bend                    67    37    47               110.07105
  344 Bend                    67    37    79               112.00614
  345 Bend                    68    18   146               109.21960
  346 Bend                    69    50    39               110.76768
  347 Bend                    69    50    57               110.96626
  348 Bend                    69    50    83               110.49321
  349 Bend                    70   130    63               110.27673
  350 Bend                    70   130   119               112.87077
  351 Bend                    70   130   149               110.59389
  352 Bend                    71   106    35               110.41788
  353 Bend                    71   106    43               110.32406
  354 Bend                    71   106    97               110.49970
  355 Bend                    72   139    38               109.77762
  356 Bend                    72   139    84               112.24281
  357 Bend                    72   139    91               109.08276
  358 Bend                    73   143    39               110.14926
  359 Bend                    73   143    85               111.72937
  360 Bend                    73   143    95               110.84712
  361 Bend                    74     8    94               108.55617
  362 Bend                    74     8   133               107.91598
  363 Bend                    74    42    91               110.00926
  364 Bend                    74    42   136               102.87491
  365 Bend                    75     9    98               108.86920
  366 Bend                    75     9   108               106.98063
  367 Bend                    75    46    95               108.45807
  368 Bend                    76    24   140               170.60273
  369 Bend                    77    25   144               159.36870
  370 Bend                    78   114    79               107.38266
  371 Bend                    78   114   146               113.13009
  372 Bend                    79    37    93               111.77788
  373 Bend                    79   114   146               110.44343
  374 Bend                    81     5   129               109.05626
  375 Bend                    81     5   134               110.31921
  376 Bend                    83    10   117               106.60083
  377 Bend                    83    10   149               108.98878
  378 Bend                    83    50   101               110.64679
  379 Bend                    84   139    91               110.18287
  380 Bend                    85   143    95               106.89390
  381 Bend                    86     6   137               111.09927
  382 Bend                    86     6   138               109.68956
  383 Bend                    88   140   109               111.67319
  384 Bend                    89   144   127               109.48750
  385 Bend                    91    42   136               109.89768
  386 Bend                    92    36    97               109.65783
  387 Bend                    94     8   133               107.80582
  388 Bend                    97   106   132               110.85996
  389 Bend                    98     9   108               108.68905
  390 Bend                   103    12   104               110.51008
  391 Bend                   103   122   109               111.16861
  392 Bend                   105    55   122               172.61059
  393 Bend                   107    13   115               107.73688
  394 Bend                   107    13   147               108.05395
  395 Bend                   107   126   108               104.87167
  396 Bend                   107   126   127               111.04316
  397 Bend                   108   126   127               111.95424
  398 Bend                   111     6    57               109.91004
  399 Bend                   111     6   137               111.45724
  400 Bend                   111     6   138               110.37011
  401 Bend                   112    89   144               161.82559
  402 Bend                   113    84   139               168.04487
  403 Bend                   114    37    29               107.07497
  404 Bend                   114    37    47               106.06212
  405 Bend                   114    37    93               113.17516
  406 Bend                   115    13   147               111.70546
  407 Bend                   116     4   125               112.53324
  408 Bend                   116     4   128               111.32289
  409 Bend                   116     4   136               111.41431
  410 Bend                   117    10   149               108.31145
  411 Bend                   119   130   135               112.47428
  412 Bend                   119   130   149               107.93992
  413 Bend                   120    12    19               110.26578
  414 Bend                   120    12    35               109.65587
  415 Bend                   120    12   103               111.30311
  416 Bend                   122   109   140               168.76733
  417 Bend                   125     4   128               106.63391
  418 Bend                   125     4   136               111.65402
  419 Bend                   126    59   140               169.72950
  420 Bend                   126   127   144               164.52693
  421 Bend                   128     4   136               102.76139
  422 Bend                   129     5   134               109.30342
  423 Bend                   130    63   144               170.57958
  424 Bend                   130    10     1               109.73906
  425 Bend                   130    10    83               111.09398
  426 Bend                   130    10   117               106.59071
  427 Bend                   135   130   149               110.90682
  428 Bend                   137     6   138               107.48690
  429 Bend                   138   124   154               142.60098
  430 Bend                   140    88   150               140.18528
  431 Bend                   143    85   148               172.23765
  432 Bend                   145     6    57               109.15926
  433 Bend                   145     6    86               111.28051
  434 Bend                   145     6   138               108.72035
  435 Bend                   151    18    26               110.69980
  436 Bend                   151    18    56               110.53088
  437 Bend                   151    18   146               109.16809
  438 Bend                   152    17    22               115.24928
  439 Bend                   152    17    44               111.48139
  440 Bend                   152    17    52               109.17727
  441 Torsion                  1    10    83    50        -140.99146
  442 Torsion                  1    10   117   131        -131.89870
  443 Torsion                  1    10   130    63        -161.46120
  444 Torsion                  1    10   130   119         -48.03278
  445 Torsion                  1    10   130   135          75.56159
  446 Torsion                 10     1   149   130         172.30439
  447 Torsion                  2   133     8    65         178.58145
  448 Torsion                  2   133     8    74         -59.54452
  449 Torsion                  2   133     8    94          57.52783
  450 Torsion                  4   136    42    34        -140.00545
  451 Torsion                  4   136    42    74         -20.54689
  452 Torsion                  4   136    42    91          96.58313
  453 Torsion                  5    53    46    38         -74.50471
  454 Torsion                  5    53    46    75          41.76385
  455 Torsion                  5    53    46    95         162.24732
  456 Torsion                  6    57    50    39         -93.79621
  457 Torsion                  6    57    50    83          23.39280
  458 Torsion                  6    57    50   101         144.25453
  459 Torsion                  6   138   124   154         155.47790
  460 Torsion                  7    52    17    22          40.75782
  461 Torsion                  7    52    17    44         -71.75827
  462 Torsion                  7    52    17    66         167.18816
  463 Torsion                  8    65   122    55         119.17745
  464 Torsion                  8    65   122   103        -118.87894
  465 Torsion                  8    65   122   109          -0.69274
  466 Torsion                  8    74    42    34         140.67622
  467 Torsion                  8    74    42    91         -97.61878
  468 Torsion                  8    74    42   136          19.43205
  469 Torsion                  9    75    46    38         -18.71257
  470 Torsion                  9    75    46    53        -136.58638
  471 Torsion                  9    75    46    95          98.55793
  472 Torsion                  9   108   126    59         -46.79967
  473 Torsion                  9   108   126   107          72.50202
  474 Torsion                  9   108   126   127        -166.99348
  475 Torsion                 10    83    50    39         -10.21840
  476 Torsion                 10    83    50    57        -127.37067
  477 Torsion                 10    83    50   101         111.80734
  478 Torsion                 11    45    16    43         -18.19117
  479 Torsion                 11    45    16    62        -137.21737
  480 Torsion                 11    45    16    80         100.45204
  481 Torsion                 12    35   106    43        -174.05721
  482 Torsion                 12    35   106    97         -55.92526
  483 Torsion                 12    35   106   132          64.71139
  484 Torsion                 12   103   122    55        -162.40586
  485 Torsion                 12   103   122    65          75.99099
  486 Torsion                 12   103   122   109         -37.96093
  487 Torsion                 13   107   126    59         110.55213
  488 Torsion                 13   107   126   108          -7.77952
  489 Torsion                 13   107   126   127        -128.88589
  490 Torsion                 13   115   110    44        -176.75880
  491 Torsion                 13   115   110    47         -56.12354
  492 Torsion                 13   115   110    51          59.08530
  493 Torsion                 14    54   114    78         122.64712
  494 Torsion                 14    54   114    79        -119.48779
  495 Torsion                 14    54   114   146           0.18333
  496 Torsion                 14   119   130    63          37.44946
  497 Torsion                 14   119   130   135         158.00215
  498 Torsion                 14   119   130   149         -79.32439
  499 Torsion                 15    81     5    53         108.65763
  500 Torsion                 15    81     5   129         -11.68041
  501 Torsion                 15    81     5   134        -131.73686
  502 Torsion                 16    43   106    35          55.36903
  503 Torsion                 16    43   106    97         -61.95390
  504 Torsion                 16    43   106   132         175.52921
  505 Torsion                 17    44   110    47        -114.48641
  506 Torsion                 17    44   110    51         120.12828
  507 Torsion                 17    44   110   115           0.69769
  508 Torsion                 18   146   114    54         -37.50599
  509 Torsion                 18   146   114    78        -157.59703
  510 Torsion                 18   146   114    79          82.00990
  511 Torsion                 19    12    35   106         136.24803
  512 Torsion                 19    12   103   122         -11.23361
  513 Torsion                 12    19   104   120        -175.38078
  514 Torsion                 20   139    38    46         121.72363
  515 Torsion                 20   139    84   113        -155.62322
  516 Torsion                 20   139    91    42         117.95889
  517 Torsion                 21   143    39    50        -151.92398
  518 Torsion                 21   143    85   148         142.44026
  519 Torsion                 21   143    95    46        -158.14106
  520 Torsion                 22    17    44   110         -47.82477
  521 Torsion                 17    22    66   152        -174.83339
  522 Torsion                 23    13   107   126          78.10094
  523 Torsion                 23    13   115   110         148.54302
  524 Torsion                 23    13   147    61        -117.50779
  525 Torsion                 24   140    59   126         170.70035
  526 Torsion                 24   140    88   150         -92.02014
  527 Torsion                 24   140   109   122          33.16573
  528 Torsion                 25   144    63   130         141.26085
  529 Torsion                 25   144    89   112        -120.16570
  530 Torsion                 25   144   127   126         128.33822
  531 Torsion                  3    56    26    18         176.82899
  532 Torsion                 18    26    68   151         177.28385
  533 Torsion                 26    18   146   114          -2.98914
  534 Torsion                 27    14    32   118        -147.69785
  535 Torsion                 27    14    54   114         -27.71159
  536 Torsion                 27    14   119   130         176.38529
  537 Torsion                 28    36    51   110         -20.50206
  538 Torsion                 36    28    92    64         178.18340
  539 Torsion                 28    36    97   106         103.46160
  540 Torsion                 29    37    47   110          38.93696
  541 Torsion                 29    37   114    54         -72.71327
  542 Torsion                 29    37   114    78          46.57637
  543 Torsion                 29    37   114   146         171.44599
  544 Torsion                 37    29    79   114         172.93500
  545 Torsion                 37    29    93    67        -176.82929
  546 Torsion                 30    19    12    35        -163.32214
  547 Torsion                 30    19    12   103         -45.35925
  548 Torsion                 30    19    12   104          73.36773
  549 Torsion                 32    14    27    40         -53.72691
  550 Torsion                 32    14    54   114          93.69457
  551 Torsion                 32    14   119   130          53.99684
  552 Torsion                 33     9    75    46        -139.55191
  553 Torsion                 33     9    98   123        -138.38115
  554 Torsion                 33     9   108   126        -106.25213
  555 Torsion                 34    42    91   139         172.35021
  556 Torsion                 35    12   103   122         108.55781
  557 Torsion                 12    35   104   120         178.24462
  558 Torsion                 35   106    97    36         -80.78377
  559 Torsion                 71   132    35   106        -178.98391
  560 Torsion                 36    51   110    44        -173.29159
  561 Torsion                 36    51   110    47          58.05799
  562 Torsion                 36    51   110   115         -56.22415
  563 Torsion                 36    97   106    43          36.92393
  564 Torsion                 36    97   106   132         159.55207
  565 Torsion                 37    47   110    44         119.49941
  566 Torsion                 37    47   110    51        -110.78055
  567 Torsion                 37    47   110   115           5.26972
  568 Torsion                 38    46    95   143          73.35607
  569 Torsion                 72    20    38   139        -174.21534
  570 Torsion                 38   139    84   113         -34.53888
  571 Torsion                 38   139    91    42          -1.72137
  572 Torsion                 50    39   101    69        -178.52265
  573 Torsion                 73    21    39   143         179.95717
  574 Torsion                 39   143    85   148         -94.24463
  575 Torsion                 39   143    95    46          82.10207
  576 Torsion                 40    27    14    54          66.85904
  577 Torsion                 40    27    14   119        -174.00165
  578 Torsion                 41   128     4   116         -75.68415
  579 Torsion                 41   128     4   125         161.22521
  580 Torsion                 41   128     4   136          43.67439
  581 Torsion                 42    74     8    65         179.56573
  582 Torsion                 42    74     8    94         -60.26966
  583 Torsion                 42    74     8   133          56.31546
  584 Torsion                 42    91   139    84        -119.36953
  585 Torsion                 42   136     4   116         141.97127
  586 Torsion                 42   136     4   125         -91.25927
  587 Torsion                 42   136     4   128          22.67639
  588 Torsion                 43    16    62   153        -105.76251
  589 Torsion                 16    43    80    31         178.68744
  590 Torsion                 71   132    43   106        -176.04380
  591 Torsion                 44    17    22    48          18.00586
  592 Torsion                 17    44    66   152         170.85337
  593 Torsion                 45    16    43   106          -9.46654
  594 Torsion                 45    16    62   153           9.32440
  595 Torsion                 16    45    80    31        -176.49677
  596 Torsion                 46    38   139    84           0.13356
  597 Torsion                 46    38   139    91        -118.68737
  598 Torsion                 46    53     5    81          22.54971
  599 Torsion                 46    53     5   129         142.28358
  600 Torsion                 46    53     5   134         -97.98070
  601 Torsion                 46    75     9    98          99.42362
  602 Torsion                 46    75     9   108         -17.86232
  603 Torsion                 46    95   143    85         -36.24603
  604 Torsion                 47    37    29    96        -108.77477
  605 Torsion                 47    37   114    54          44.05915
  606 Torsion                 47    37   114    78         163.34880
  607 Torsion                 47    37   114   146         -71.78158
  608 Torsion                 37    47    79   114        -179.12717
  609 Torsion                 37    47    93    67        -178.72920
  610 Torsion                 48    22    17    52         -95.29655
  611 Torsion                 48    22    17    66         139.80638
  612 Torsion                 49    78   114    54        -106.97992
  613 Torsion                 49    78   114    79         133.40314
  614 Torsion                 49    78   114   146          11.28204
  615 Torsion                 50    39   143    85          83.93707
  616 Torsion                 50    39   143    95         -31.81166
  617 Torsion                 50    57     6    86          95.09943
  618 Torsion                 50    57     6   137        -141.19858
  619 Torsion                 50    57     6   138         -24.47669
  620 Torsion                 50    83    10   117          97.81072
  621 Torsion                 50    83    10   149         -18.88828
  622 Torsion                 51    36    28    87           6.70040
  623 Torsion                 36    51    92    64         179.42636
  624 Torsion                 51    36    97   106         -12.19049
  625 Torsion                 52    17    44   110          68.34722
  626 Torsion                 17    52    66   152        -176.24352
  627 Torsion                 53     5   129   142          89.44065
  628 Torsion                 53     5   134   121         176.61795
  629 Torsion                 53    46    38   139         157.12191
  630 Torsion                 53    46    95   143        -162.68652
  631 Torsion                 54    14    32   118          92.09677
  632 Torsion                 54    14   119   130         -63.57263
  633 Torsion                 54   114    37    93         165.97721
  634 Torsion                 37    79    54   114        -175.73077
  635 Torsion                 55   122   109   140        -109.27981
  636 Torsion                 56    18    26   102        -133.88267
  637 Torsion                 18    56    68   151         177.06186
  638 Torsion                 56    18   146   114         117.27066
  639 Torsion                  6    57    86   111        -178.94865
  640 Torsion                  6    57   137   145         176.95312
  641 Torsion                 57     6   138   124        -125.23020
  642 Torsion                 57    50    39   143          48.56013
  643 Torsion                 50    57   101    69        -179.82028
  644 Torsion                 59   126   127   144         166.56561
  645 Torsion                 59   140    24    76          74.35443
  646 Torsion                 59   140    88   150          28.06521
  647 Torsion                 59   140   109   122         -86.86142
  648 Torsion                 61   147    13   107          -2.48875
  649 Torsion                 61   147    13   115         115.84628
  650 Torsion                 62    16    43   106         108.07345
  651 Torsion                 16    62    80    31         178.01163
  652 Torsion                 70   135    63   130         178.06002
  653 Torsion                 63   130    10    83          74.23233
  654 Torsion                 63   130    10   117         -41.51810
  655 Torsion                 10   149    63   130         172.31224
  656 Torsion                 63   144    25    77         162.86903
  657 Torsion                 63   144    89   112           1.69332
  658 Torsion                 63   144   127   126          10.33189
  659 Torsion                 65     8    94    82          -4.41525
  660 Torsion                 65   122    55   105        -176.84630
  661 Torsion                 65   122   109   140          10.56676
  662 Torsion                 66    17    44   110        -170.98839
  663 Torsion                 68    18    26   102         102.96647
  664 Torsion                  3    56    68    18        -177.89632
  665 Torsion                 68    18   146   114        -123.24044
  666 Torsion                 74     8    65   122         -28.05438
  667 Torsion                 74     8    94    82        -124.94888
  668 Torsion                 74    42    34   100        -108.99307
  669 Torsion                 74    42    91   139          50.24074
  670 Torsion                 75     9    33    90         -51.47053
  671 Torsion                 75     9    98   123         -16.13826
  672 Torsion                 75     9   108   126         131.76827
  673 Torsion                 75    46    38   139          41.45001
  674 Torsion                 75    46    95   143         -43.22713
  675 Torsion                 76    24   140    88        -169.18764
  676 Torsion                 76    24   140   109         -44.67434
  677 Torsion                 77    25   144    89         -75.16826
  678 Torsion                 77    25   144   127          44.98603
  679 Torsion                 78   114    37    93         -74.73315
  680 Torsion                 37    79    78   114        -176.72841
  681 Torsion                 79    37    29    96           7.91316
  682 Torsion                 79    37    47   110         -76.53920
  683 Torsion                 37    79    93    67         175.40708
  684 Torsion                 80    16    43   106        -128.93249
  685 Torsion                 80    16    62   153         131.80591
  686 Torsion                 81     5   129   142        -150.67745
  687 Torsion                 81     5   134   121          56.71791
  688 Torsion                 82    94     8   133         118.39518
  689 Torsion                 10    83     1    60         178.60867
  690 Torsion                 83    10   117   131          -9.93592
  691 Torsion                 83    10   130   119        -172.33924
  692 Torsion                 83    10   130   135         -48.74487
  693 Torsion                 10    83   149   130        -176.57968
  694 Torsion                 83    50    39   143         -67.92721
  695 Torsion                 50    83   101    69         178.32711
  696 Torsion                 72    20    84   139         178.40240
  697 Torsion                 73    21    85   143        -179.57602
  698 Torsion                  6    86   137   145        -172.45678
  699 Torsion                 86     6   138   124         114.40173
  700 Torsion                 87    28    36    92         127.54878
  701 Torsion                 87    28    36    97        -109.36446
  702 Torsion                 88   140    59   126          48.60340
  703 Torsion                 88   140   109   122         158.71896
  704 Torsion                 89   144    63   130          17.43532
  705 Torsion                 89   144   127   126        -109.50658
  706 Torsion                 90    33     9    98          69.15202
  707 Torsion                 90    33     9   108        -170.74598
  708 Torsion                 91    42    34   100         129.27630
  709 Torsion                 72    20    91   139         175.92003
  710 Torsion                 91   139    84   113          82.27251
  711 Torsion                 92    36    51   110        -142.37317
  712 Torsion                 92    36    97   106        -132.05931
  713 Torsion                 93    37    29    96         129.08533
  714 Torsion                 93    37    47   110         160.44921
  715 Torsion                 93    37   114   146          50.13647
  716 Torsion                 37    93    79   114        -173.51640
  717 Torsion                 94     8    65   122        -147.54441
  718 Torsion                 95    46    38   139         -75.72498
  719 Torsion                 73    21    95   143         179.60129
  720 Torsion                 95   143    85   148          21.10623
  721 Torsion                 97    36    51   110          98.30064
  722 Torsion                 36    97    92    64        -177.70584
  723 Torsion                 71   132    97   106         175.00655
  724 Torsion                 98     9   108   126          14.36389
  725 Torsion                 99    23    13   107         -60.80075
  726 Torsion                 99    23    13   115        -179.68824
  727 Torsion                 99    23    13   147          55.18443
  728 Torsion                100    34    42   136           5.90231
  729 Torsion                101    50    39   143         170.25870
  730 Torsion                102    26    18   146         -15.56707
  731 Torsion                103    12    35   106          21.03409
  732 Torsion                 12   103   104   120         177.09911
  733 Torsion                103   122    55   105          63.78836
  734 Torsion                103   122   109   140         125.98913
  735 Torsion                104    12    35   106        -100.70792
  736 Torsion                104    12   103   122        -129.67260
  737 Torsion                105    55   122   109         -60.75201
  738 Torsion                107    13   115   110          30.31419
  739 Torsion                107   126    59   140           0.29423
  740 Torsion                107   126   127   144          44.37847
  741 Torsion                108     9    98   123         100.05667
  742 Torsion                108   126    59   140         115.71535
  743 Torsion                108   126   127   144         -72.46653
  744 Torsion                109   140    59   126         -70.62929
  745 Torsion                109   140    88   150         145.34518
  746 Torsion                110   115    13   147         -88.20996
  747 Torsion                112    89   144   127         121.30413
  748 Torsion                114    54    14   119        -150.30923
  749 Torsion                115    13   107   126        -158.81434
  750 Torsion                116     4   125   141        -134.02963
  751 Torsion                 10   117     1    60         175.66043
  752 Torsion                117    10   130   119          71.91033
  753 Torsion                117    10   130   135        -164.49530
  754 Torsion                 10   117   149   130        -175.24435
  755 Torsion                118    32    14   119         -24.01863
  756 Torsion                119   130    63   144          14.47297
  757 Torsion                 70   135   119   130        -179.36117
  758 Torsion                 10   149   119   130        -176.30817
  759 Torsion                121   134     5   129         -63.18952
  760 Torsion                122    65     8   133          92.47617
  761 Torsion                124   138     6   137          -6.50245
  762 Torsion                  4   125   116    58         176.74073
  763 Torsion                126   107    13   147         -37.97324
  764 Torsion                127   126    59   140        -121.88202
  765 Torsion                127   144    63   130        -102.39478
  766 Torsion                  4   128   116    58         177.90242
  767 Torsion                128     4   125   141         -11.69765
  768 Torsion                131   117    10   149         107.21322
  769 Torsion                134     5   129   142         -29.99649
  770 Torsion                135   130    63   144        -107.45255
  771 Torsion                 10   149   135   130        -176.15977
  772 Torsion                  4   136   116    58        -174.65081
  773 Torsion                136     4   125   141          99.81187
  774 Torsion                136    42    91   139         -62.34081
  775 Torsion                  6   137    86   111         175.22010
  776 Torsion                  6   138    86   111        -176.17259
  777 Torsion                  6   138   137   145         175.34742
  778 Torsion                144    63   130   149         130.41196
  779 Torsion                  3    56   146    18        -179.07246
  780 Torsion                 18   146    68   151        -174.13136
  781 Torsion                 37    79   146   114         172.58518
  782 Torsion                 10   149     1    60        -174.48156
  783 Torsion                 70   135   149   130        -178.70668


            XYZ format geometry
            -------------------
   154
 geometry
 O                    -3.28108695     1.64092916    -4.86354833
 H                     1.95626967    -5.77958242     0.08127987
 H                    -5.76814072     9.58821740     1.78292058
 Si                    1.03068017    -8.59575364     3.30320760
 Si                   -0.33357216    -7.67646639    -0.94869902
 Si                   -1.21056457    -4.12085933    -5.15470464
 H                    -1.50700527     6.24798328    -0.96350394
 Si                    3.12519024    -4.87249153     2.10270380
 Si                   -0.02078003    -2.41051225    -1.07396016
 Si                   -3.11867831     0.59322771    -3.59511229
 H                     2.58228681     3.27563483    -2.21013939
 Si                    4.83166534    -0.47564798    -0.46572636
 Si                    0.56573994     2.42950916    -0.50769183
 Si                   -3.88011078     4.71513026    -0.47699720
 H                     1.60576986    -7.82942052     0.70940104
 Si                    4.71849636     4.58640676    -2.37973107
 Si                    0.78844769     7.16114953    -0.55999114
 Si                   -3.51150300     8.41221145     2.38832648
 O                     3.30134028    -0.59947583    -1.14612651
 O                    -3.46364825    -5.01792579     3.73063400
 O                    -6.20006356    -4.79980336    -1.41557300
 O                     1.58213044     6.37683429    -1.78259331
 O                    -0.58189761     2.73010467    -1.69077522
 O                     0.93884364    -1.88659446     4.80125952
 O                    -4.61810468    -0.99240073     2.29244899
 O                    -2.52505101     8.26387165     1.07278010
 O                    -4.73037083     6.01723824    -1.03653542
 O                     3.64261339     2.41507462     3.62054867
 O                    -0.83872263     2.48364239     4.07120500
 H                     2.61462943    -1.29279894    -1.20843936
 H                     5.93706545     4.26606490    -4.66793648
 O                    -2.34336089     4.68595816    -1.12460395
 O                    -0.17132606    -1.82289037    -2.62400079
 O                     0.99098801    -5.00033243     5.81657038
 O                     5.31405618     1.09848321    -0.32054828
 Si                    4.24580368     3.67720912     2.73843970
 Si                   -0.77761655     4.16187497     3.98301864
 O                    -2.06804904    -4.75370592     1.40155630
 O                    -4.54779228    -3.17178221    -2.84939263
 H                    -5.11776535     6.84264412    -1.31664844
 H                     3.16885200    -7.65902556     2.26958093
 Si                    0.69064846    -5.51142167     4.26487036
 O                     5.44125306     3.65517096    -1.19528140
 O                     1.22170864     6.32070458     0.83844004
 O                     3.13892823     4.03489941    -2.45796724
 Si                   -2.00489535    -4.91611178    -0.25078639
 O                     0.35310757     4.61403953     2.85800526
 H                     2.06066808     5.66344802    -2.23466582
 H                    -5.76806664     4.27852852     4.08602813
 Si                   -4.00049732    -2.53683555    -4.28489925
 O                     2.91987539     4.48818163     2.10854578
 O                    -0.86440370     6.95278970    -0.72568821
 O                    -1.32501125    -6.38170525    -0.65195007
 O                    -3.78306281     4.80732852     1.18626106
 O                     5.51628642    -1.69083744     3.59693350
 O                    -4.95510306     9.14298790     2.00254329
 O                    -2.65257848    -3.39697810    -4.76475024
 H                     1.66377245   -10.49825482     4.96717046
 O                     0.30877337    -0.51724006     2.52051261
 H                    -3.34642629     2.28474822    -5.56421953
 H                     2.50851255     0.99692197    -1.32245155
 O                     4.70766026     6.18589944    -1.95618948
 O                    -4.40244620     0.90117488     0.36210564
 H                     5.68533228     5.30560387     4.18479059
 O                     3.83546729    -3.39265016     2.25080025
 O                     1.17161733     8.76568821    -0.44530398
 H                    -0.18610544     5.18364602     6.30611406
 O                    -2.77727106     9.25461558     3.61873236
 H                    -5.86483739    -2.62934687    -6.10796592
 H                    -7.49324364     1.18722796    -1.36170068
 H                     8.47170370     2.60796635     0.32122589
 H                    -4.19628481    -5.46920286     4.14147662
 H                    -6.95745158    -5.37630741    -1.46312955
 O                     1.93168546    -5.05461668     3.24350157
 O                    -0.97795423    -3.74071457    -0.83159940
 H                     0.71504486    -2.68317791     5.28281203
 H                    -4.79423849    -1.80673720     2.76295725
 O                    -4.94290114     4.39296757     3.61761571
 O                    -2.27159916     4.65656680     3.44704870
 O                     5.50052299     4.36441926    -3.82660447
 O                     1.05827043    -7.52198297    -0.04724027
 H                     5.17230030    -6.38858416     2.48143111
 O                    -3.52155411    -0.96435042    -4.02022452
 O                    -2.21116931    -2.67604199     3.10935308
 O                    -5.10479098    -2.58022116    -0.23790616
 O                    -0.82478225    -5.29405376    -4.05957551
 H                     3.06393628     1.75684958     4.03372726
 O                     1.43458317     0.82781292     4.48869077
 O                    -4.06760387     1.63542835     2.94352812
 H                    -0.13483521    -2.10227844    -3.56489241
 O                    -0.74210333    -4.88259388     3.73072894
 O                     5.16699024     4.70027600     3.66264372
 O                    -0.41952485     4.79191203     5.46866802
 O                     4.27801330    -6.08125174     2.33442643
 O                    -3.51493304    -4.64235970    -0.86579381
 H                    -1.33659023     1.68637700     3.87866613
 O                     5.14314886     3.13000461     1.44288775
 O                     1.57302636    -2.83112274    -0.78674023
 H                    -0.98802590     2.13277143    -2.36108949
 H                     1.19053082    -4.88087013     6.74254201
 O                    -5.17671529    -2.60092267    -5.44866677
 H                    -1.91183065     7.95115906     0.37744974
 O                     4.66992485    -1.14045066     1.05616030
 O                     5.92547590    -1.33919301    -1.36353416
 H                     6.22620613    -1.51005694     4.20790470
 Si                    5.87688453     2.63288451     0.03803358
 O                    -0.08610246     1.27565386     0.50537942
 O                    -0.47927268    -1.27496439     0.04129437
 O                     2.89137154    -1.08248911     3.13748470
 Si                    1.39497044     4.85314641     1.57994420
 H                    -0.64415806    -5.97566185    -3.40425133
 H                    -4.31967199     2.48164938     3.33862516
 H                    -2.13398305    -1.72691040     3.00492600
 Si                   -3.70756749     5.18331150     2.80237811
[...]
 There is an error related to the specified geometry
 ------------------------------------------------------------------------
 For more information see the NWChem manual at https://nwchemgit.github.io


 For further details see manual section:                                                                                                                                                                                                                                                                
 driver_energy_step: energy failed                   0
 ------------------------------------------------------------------------
 ------------------------------------------------------------------------
  current input line : 
     0: 
 ------------------------------------------------------------------------
 ------------------------------------------------------------------------
 There is an error related to the specified geometry
 ------------------------------------------------------------------------
 For more information see the NWChem manual at https://nwchemgit.github.io


 For further details see manual section:                                                                                                                                                                                                                                                                
 driver_energy_step: energy failed                   0
 ------------------------------------------------------------------------
 ------------------------------------------------------------------------
  current input line : 
     0: 
 ------------------------------------------------------------------------
 ------------------------------------------------------------------------
 There is an error related to the specified geometry
 ------------------------------------------------------------------------
 For more information see the NWChem manual at https://nwchemgit.github.io


 For further details see manual section:                                                                                                                                                                                                                                                                
 driver_energy_step: energy failed                   0
 ------------------------------------------------------------------------
 ------------------------------------------------------------------------
  current input line : 
     0: 
 ------------------------------------------------------------------------
 ------------------------------------------------------------------------
 There is an error related to the specified geometry
 ------------------------------------------------------------------------
 For more information see the NWChem manual at https://nwchemgit.github.io


 For further details see manual section:                                                                                                                                                                                                                                                                
 driver_energy_step: energy failed                   0
 ------------------------------------------------------------------------
 ------------------------------------------------------------------------
  current input line : 
     0: 
 ------------------------------------------------------------------------
 ------------------------------------------------------------------------
 There is an error related to the specified geometry
 ------------------------------------------------------------------------
 For more information see the NWChem manual at https://nwchemgit.github.io


 For further details see manual section:                                                                                                                                                                                                                                                                
 driver_energy_step: energy failed                   0
 ------------------------------------------------------------------------
 ------------------------------------------------------------------------
  current input line : 
     0: 
 ------------------------------------------------------------------------
 ------------------------------------------------------------------------
 There is an error related to the specified geometry
 ------------------------------------------------------------------------
 For more information see the NWChem manual at https://nwchemgit.github.io


 For further details see manual section:                                                                                                                                                                                                                                                                
 driver_energy_step: energy failed                   0
 ------------------------------------------------------------------------
 ------------------------------------------------------------------------
  current input line : 
     0: 
 ------------------------------------------------------------------------
 ------------------------------------------------------------------------
 There is an error related to the specified geometry
 ------------------------------------------------------------------------
 For more information see the NWChem manual at https://nwchemgit.github.io


 For further details see manual section:                                                                                                                                                                                                                                                                
 driver_energy_step: energy failed                   0
 ------------------------------------------------------------------------
 ------------------------------------------------------------------------
  current input line : 
     0: 
 ------------------------------------------------------------------------
 ------------------------------------------------------------------------
 There is an error related to the specified geometry
 ------------------------------------------------------------------------
 For more information see the NWChem manual at https://nwchemgit.github.io


 For further details see manual section:                                                                                                                                                                                                                                                                
 driver_energy_step: energy failed                   0
 ------------------------------------------------------------------------
 ------------------------------------------------------------------------
  current input line : 
     0: 
 ------------------------------------------------------------------------
 ------------------------------------------------------------------------
 There is an error related to the specified geometry
 ------------------------------------------------------------------------
 For more information see the NWChem manual at https://nwchemgit.github.io


 For further details see manual section:                                                                                                                                                                                                                                                                
 driver_energy_step: energy failed                   0
 ------------------------------------------------------------------------
 ------------------------------------------------------------------------
  current input line : 
     0: 
 ------------------------------------------------------------------------
 ------------------------------------------------------------------------
 There is an error related to the specified geometry
 ------------------------------------------------------------------------
 For more information see the NWChem manual at https://nwchemgit.github.io


 For further details see manual section:                                                                                                                                                                                                                                                                
 driver_energy_step: energy failed                   0
 ------------------------------------------------------------------------
 ------------------------------------------------------------------------
  current input line : 
     0: 
 ------------------------------------------------------------------------
 ------------------------------------------------------------------------
 There is an error related to the specified geometry
 ------------------------------------------------------------------------
 For more information see the NWChem manual at https://nwchemgit.github.io


 For further details see manual section:                                                                                                                                                                                                                                                                
 driver_energy_step: energy failed                   0
 ------------------------------------------------------------------------
 ------------------------------------------------------------------------
  current input line : 
     0: 
 ------------------------------------------------------------------------
 ------------------------------------------------------------------------
 There is an error related to the specified geometry
 ------------------------------------------------------------------------
 For more information see the NWChem manual at https://nwchemgit.github.io


 For further details see manual section:                                                                                                                                                                                                                                                                
 driver_energy_step: energy failed                   0
 ------------------------------------------------------------------------
 ------------------------------------------------------------------------
  current input line : 
     0: 
 ------------------------------------------------------------------------
 ------------------------------------------------------------------------
 There is an error related to the specified geometry
 ------------------------------------------------------------------------
 For more information see the NWChem manual at https://nwchemgit.github.io


 For further details see manual section:                                                                                                                                                                                                                                                                
 driver_energy_step: energy failed                   0
 ------------------------------------------------------------------------
 ------------------------------------------------------------------------
  current input line : 
     0: 
 ------------------------------------------------------------------------
 ------------------------------------------------------------------------
 There is an error related to the specified geometry
 ------------------------------------------------------------------------
 For more information see the NWChem manual at https://nwchemgit.github.io


 For further details see manual section:                                                                                                                                                                                                                                                                
 driver_energy_step: energy failed                   0
 ------------------------------------------------------------------------
 ------------------------------------------------------------------------
  current input line : 
     0: 
 ------------------------------------------------------------------------
 ------------------------------------------------------------------------
 There is an error related to the specified geometry
 ------------------------------------------------------------------------
 For more information see the NWChem manual at https://nwchemgit.github.io


 For further details see manual section:                                                                                                                                                                                                                                                                
 driver_energy_step: energy failed                   0
 ------------------------------------------------------------------------
 ------------------------------------------------------------------------
  current input line : 
     0: 
 ------------------------------------------------------------------------
 ------------------------------------------------------------------------
 There is an error related to the specified geometry
 ------------------------------------------------------------------------
 For more information see the NWChem manual at https://nwchemgit.github.io


 For further details see manual section:                                                                                                                                                                                                                                                                
 driver_energy_step: energy failed                   0
 ------------------------------------------------------------------------
 ------------------------------------------------------------------------
  current input line : 
     0: 
 ------------------------------------------------------------------------
 ------------------------------------------------------------------------
 There is an error related to the specified geometry
 ------------------------------------------------------------------------
 For more information see the NWChem manual at https://nwchemgit.github.io


 For further details see manual section:                                                                                                                                                                                                                                                                
 driver_energy_step: energy failed                   0
 ------------------------------------------------------------------------
 ------------------------------------------------------------------------
  current input line : 
     0: 
 ------------------------------------------------------------------------
 ------------------------------------------------------------------------
 There is an error related to the specified geometry
 ------------------------------------------------------------------------
 For more information see the NWChem manual at https://nwchemgit.github.io


 For further details see manual section:                                                                                                                                                                                                                                                                
 driver_energy_step: energy failed                   0
 ------------------------------------------------------------------------
 ------------------------------------------------------------------------
  current input line : 
     0: 
 ------------------------------------------------------------------------
 ------------------------------------------------------------------------
 There is an error related to the specified geometry
 ------------------------------------------------------------------------
 For more information see the NWChem manual at https://nwchemgit.github.io


 For further details see manual section:                                                                                                                                                                                                                                                                
 driver_energy_step: energy failed                   0
 ------------------------------------------------------------------------
 ------------------------------------------------------------------------
  current input line : 
     0: 
 ------------------------------------------------------------------------
 ------------------------------------------------------------------------
 There is an error related to the specified geometry
 ------------------------------------------------------------------------
 For more information see the NWChem manual at https://nwchemgit.github.io


 For further details see manual section:                                                                                                                                                                                                                                                                
 driver_energy_step: energy failed                   0
 ------------------------------------------------------------------------
 ------------------------------------------------------------------------
  current input line : 
     0: 
 ------------------------------------------------------------------------
 ------------------------------------------------------------------------
 There is an error related to the specified geometry
 ------------------------------------------------------------------------
 For more information see the NWChem manual at https://nwchemgit.github.io


 For further details see manual section:                                                                                                                                                                                                                                                                
 driver_energy_step: energy failed                   0
 ------------------------------------------------------------------------
 ------------------------------------------------------------------------
  current input line : 
     0: 
 ------------------------------------------------------------------------
 ------------------------------------------------------------------------
 There is an error related to the specified geometry
 ------------------------------------------------------------------------
 For more information see the NWChem manual at https://nwchemgit.github.io


 For further details see manual section:                                                                                                                                                                                                                                                                
 driver_energy_step: energy failed                   0
 ------------------------------------------------------------------------
 ------------------------------------------------------------------------
  current input line : 
     0: 
 ------------------------------------------------------------------------
 ------------------------------------------------------------------------
 There is an error related to the specified geometry
 ------------------------------------------------------------------------
 For more information see the NWChem manual at https://nwchemgit.github.io


 For further details see manual section:                                                                                                                                                                                                                                                                
