|===============================================================================
|
|  DFTB+ development version (commit: 0fe8bbba, base: 24.1)
|
|  Copyright (C) 2006 - 2025  DFTB+ developers group
|
|===============================================================================
|
|  When publishing results obtained with DFTB+, please cite the following
|  reference:
|
|  * DFTB+, a software package for efficient approximate density functional
|    theory based atomistic simulations, J. Chem. Phys. 152, 124101 (2020).
|    [doi: 10.1063/1.5143190]
|
|  You should also cite additional publications crediting the parametrization
|  data you use. Please consult the documentation of the SK-files for the
|  references.
|
|===============================================================================

Reading input file 'dftb_in.hsd'
Parser version: 14

--------------------------------------------------------------------------------
***  Converting input from parser version 12 to parser version 14 ...
***  Done.

Reading SK-files:
././Ti-Ti.skf
././Ti-O.skf
././O-O.skf
Done.


Processed input in HSD format written to 'dftb_pin.hsd'

Starting initialization...
--------------------------------------------------------------------------------
WARNING!
-> Dipole printed for extended system : value printed is not well defined
OpenMP threads:              12
Chosen random seed:          19523549
Current stacksize:           unlimited
Mode:                        Static calculation
Self consistent charges:     Yes
SCC-tolerance:                 0.100000E-04
Max. scc iterations:                    100
Shell resolved Hubbard:      No
Spin polarisation:           No
Nr. of up electrons:            16.000000
Nr. of down electrons:          16.000000
Periodic boundaries:         Yes
Electronic solver:           Relatively robust
Mixer:                       Broyden mixer
Mixing parameter:                  0.200000
Nr. of chrg. vec. in memory:            100
Max. SCC-cycles:                        100
Electronic temperature:              0.100000E-07 H      0.272114E-06 eV
Initial charges:             Set automatically (system chrg:   0.000E+00)
Included shells:            Ti:  s, p, d
                             O:  s, p
K-points and weights:           1:  0.125000  0.125000  0.125000     0.031250
                                2:  0.125000  0.125000  0.375000     0.031250
                                3:  0.125000  0.125000  0.625000     0.031250
                                4:  0.125000  0.125000  0.875000     0.031250
                                5:  0.125000  0.375000  0.125000     0.031250
                                6:  0.125000  0.375000  0.375000     0.031250
                                7:  0.125000  0.375000  0.625000     0.031250
                                8:  0.125000  0.375000  0.875000     0.031250
                                9:  0.125000  0.625000  0.125000     0.031250
                               10:  0.125000  0.625000  0.375000     0.031250
                               11:  0.125000  0.625000  0.625000     0.031250
                               12:  0.125000  0.625000  0.875000     0.031250
                               13:  0.125000  0.875000  0.125000     0.031250
                               14:  0.125000  0.875000  0.375000     0.031250
                               15:  0.125000  0.875000  0.625000     0.031250
                               16:  0.125000  0.875000  0.875000     0.031250
                               17:  0.375000  0.125000  0.125000     0.031250
                               18:  0.375000  0.125000  0.375000     0.031250
                               19:  0.375000  0.125000  0.625000     0.031250
                               20:  0.375000  0.125000  0.875000     0.031250
                               21:  0.375000  0.375000  0.125000     0.031250
                               22:  0.375000  0.375000  0.375000     0.031250
                               23:  0.375000  0.375000  0.625000     0.031250
                               24:  0.375000  0.375000  0.875000     0.031250
                               25:  0.375000  0.625000  0.125000     0.031250
                               26:  0.375000  0.625000  0.375000     0.031250
                               27:  0.375000  0.625000  0.625000     0.031250
                               28:  0.375000  0.625000  0.875000     0.031250
                               29:  0.375000  0.875000  0.125000     0.031250
                               30:  0.375000  0.875000  0.375000     0.031250
                               31:  0.375000  0.875000  0.625000     0.031250
                               32:  0.375000  0.875000  0.875000     0.031250

K-points in absolute space:     1:  0.034751  0.034751  0.013597
                                2:  0.069502  0.069502  0.013597
                                3:  0.104252  0.104252  0.013597
                                4:  0.139003  0.139003  0.013597
                                5:  0.069502  0.034751  0.027195
                                6:  0.104252  0.069502  0.027195
                                7:  0.139003  0.104252  0.027195
                                8:  0.173754  0.139003  0.027195
                                9:  0.104252  0.034751  0.040792
                               10:  0.139003  0.069502  0.040792
                               11:  0.173754  0.104252  0.040792
                               12:  0.208505  0.139003  0.040792
                               13:  0.139003  0.034751  0.054389
                               14:  0.173754  0.069502  0.054389
                               15:  0.208505  0.104252  0.054389
                               16:  0.243256  0.139003  0.054389
                               17:  0.034751  0.069502  0.027195
                               18:  0.069502  0.104252  0.027195
                               19:  0.104252  0.139003  0.027195
                               20:  0.139003  0.173754  0.027195
                               21:  0.069502  0.069502  0.040792
                               22:  0.104252  0.104252  0.040792
                               23:  0.139003  0.139003  0.040792
                               24:  0.173754  0.173754  0.040792
                               25:  0.104252  0.069502  0.054389
                               26:  0.139003  0.104252  0.054389
                               27:  0.173754  0.139003  0.054389
                               28:  0.208505  0.173754  0.054389
                               29:  0.139003  0.069502  0.067986
                               30:  0.173754  0.104252  0.067986
                               31:  0.208505  0.139003  0.067986
                               32:  0.243256  0.173754  0.067986

Extra options:
                             Mulliken analysis

--------------------------------------------------------------------------------

***  Geometry step: 0

 iSCC Total electronic   Diff electronic      SCC error    
    1   -0.16283390E+02    0.00000000E+00    0.13161291E+01
    2   -0.16291081E+02   -0.16283390E+02    0.95678410E+00
    3   -0.16300065E+02   -0.76912683E-02    0.20040835E-01
    4   -0.16300069E+02   -0.89838217E-02    0.52817896E-03
>> Charges saved for restart in charges.bin
    5   -0.16300069E+02   -0.41537409E-05    0.19881454E-05

Total Energy:                      -15.6622193653 H         -426.1907 eV
Extrapolated to 0K:                -15.6622193653 H         -426.1907 eV
Total Mermin free energy:          -15.6622193653 H         -426.1907 eV
Force related energy:              -15.6622193653 H         -426.1907 eV


--------------------------------------------------------------------------------
DFTB+ running times                          cpu [s]             wall clock [s]
--------------------------------------------------------------------------------
Pre-SCC initialisation                 +       0.33 (  2.7%)       0.04 (  3.0%)
SCC                                    +      11.72 ( 96.8%)       1.16 ( 96.0%)
--------------------------------------------------------------------------------
Missing                                +       0.05 (  0.4%)       0.01 (  1.0%)
Total                                  =      12.10 (100.0%)       1.21 (100.0%)
--------------------------------------------------------------------------------
