 argument  1 = /lustre/ukt/milias/work/projects/open-collection/theoretical_chemistry/projects/adsorbate_on_surface/on_quartz/quartz/nwchem/Quartz-G_molecular_slab_117atoms/Bi_on_quartz/ecp/BiQ.geopt_crenbl_ecp_revpbe-d3bj_odft.nw



============================== echo of input deck ==============================
echo

start BionQ

memory total 180 gb
permanent_dir /lustre/ukt/milias/scratch/Bi-odft_on_quartz

print low

title "Bi@Quartz ecp"
charge 0

geometry units angstroms print xyz autosym
  load format xyz BionQ.xyz
end

basis
 * library crenbl_ecp
end

ecp
  Si library crenbl_ecp
  Bi library crenbl_ecp
end

dft
  odft
  mult 4
  xc revpbe cpbe96
  disp vdw 4
  maxiter 500
end

driver
  maxiter 999
end

task dft optimize

#task dft frequencies

================================================================================


                                         
                                         


             Northwest Computational Chemistry Package (NWChem) 7.2.0
             --------------------------------------------------------


                    Environmental Molecular Sciences Laboratory
                       Pacific Northwest National Laboratory
                                Richland, WA 99352

                              Copyright (c) 1994-2022
                       Pacific Northwest National Laboratory
                            Battelle Memorial Institute

             NWChem is an open-source computational chemistry package
                        distributed under the terms of the
                      Educational Community License (ECL) 2.0
             A copy of the license is included with this distribution
                              in the LICENSE.TXT file

                                  ACKNOWLEDGMENT
                                  --------------

            This software and its documentation were developed at the
            EMSL at Pacific Northwest National Laboratory, a multiprogram
            national laboratory, operated for the U.S. Department of Energy
            by Battelle under Contract Number DE-AC05-76RL01830. Support
            for this work was provided by the Department of Energy Office
            of Biological and Environmental Research, Office of Basic
            Energy Sciences, and the Office of Advanced Scientific Computing.


           Job information
           ---------------

    hostname        = lxbk1136
    program         = /lustre/ukt/milias/work/software/nwchem/nwchem-7.2.0_gnu_openmpi_openblas/bin/LINUX64/nwchem
    date            = Wed Aug 30 22:52:15 2023

    compiled        = Sun_Jul_02_11:55:06_2023
    source          = /lustre/ukt/milias/work/software/nwchem/nwchem-7.2.0_gnu_openmpi_openblas
    nwchem branch   = 7.2.0
    nwchem revision = v7.2.0-beta1-192-gd0d141fdfb
    ga revision     = 5.8.0
    use scalapack   = F
    input           = /lustre/ukt/milias/work/projects/open-collection/theoretical_chemistry/projects/adsorbate_on_surface/on_quartz/quartz/nwchem/Quartz-G_molecular_slab_117atoms/Bi_on_quartz/ecp/BiQ.geopt_crenbl_ecp_revpbe-d3bj_odft.nw
    prefix          = BionQ.
    data base       = /lustre/ukt/milias/scratch/Bi-odft_on_quartz/BionQ.db
    status          = startup
    nproc           =      140
    time left       =     -1s



           Memory information
           ------------------

    heap     = 6039797760 doubles =  46080.0 Mbytes
    stack    = 6039797757 doubles =  46080.0 Mbytes
    global   = ********** doubles =  92160.0 Mbytes (distinct from heap & stack)
    total    = ********** doubles = 184320.0 Mbytes
    verify   = yes
    hardfail = no 


           Directory information
           ---------------------

  0 permanent = /lustre/ukt/milias/scratch/Bi-odft_on_quartz
  0 scratch   = .




                                NWChem Input Module
                                -------------------


                                   Bi@Quartz ecp
                                   -------------

 Scaling coordinates for geometry "geometry" by  1.889725989
 (inverse scale =  0.529177249)


          ------
          auto-z
          ------
  autoz: The atoms group into disjoint clusters
 cluster   1:    1    2    3    4    5    6    7    8    9   10   11
                12   13   14   15   16   17   18   19   20   21   22
                23   24   25   26   27   28   29   30   31   32   33
                34   35   36   37   38   39   40   41   42   43   44
                45   46   47   48   49   50   51   52   53   54   55
                56   57   58   59   60   61   62   63   64   65   66
                67   68   69   70   71   72   73   74   75   76   77
                78   79   80   81   82   83   84   85   86   87   88
                89   90   91   92   93   94   95   96   97   98   99
               100  101  102  103  104  105  106  107  108  109  110
               111  112  113  114  115  116  117
 cluster   2:  118
 Connecting clusters   1   2 via atoms   30  118 r = 3.19
  autoz: regenerating connections with new bonds
  no constraints, skipping    0.0000000000000000     
  no constraints, skipping    0.0000000000000000     


                             Geometry "geometry" -> ""
                             -------------------------

 Output coordinates in angstroms (scale by  1.889725989 to convert to a.u.)

  No.       Tag          Charge          X              Y              Z
 ---- ---------------- ---------- -------------- -------------- --------------
    1 O                    8.0000    -4.89927418     2.60429219    -3.49354101
    2 H                    1.0000     1.15490660    -4.61108060    -1.10222090
    3 O                    8.0000     2.01634640     1.89121431    -2.67048251
    4 O                    8.0000    -6.19020822     2.72319909     1.26972703
    5 O                    8.0000     1.54708079    -7.28654210     4.26690075
    6 Si                  14.0000     2.49121484    -0.94052136     2.55007945
    7 O                    8.0000    -2.74185314     1.13645019    -2.64295147
    8 Si                  14.0000     2.88298604    -5.48352761     0.63294834
    9 Si                  14.0000    -0.96995671    -2.47237720    -1.46539315
   10 Si                  14.0000    -4.36080021     1.50740596    -2.37592177
   11 H                    1.0000     1.32467346    -2.65225772    -2.48860637
   12 Si                  14.0000     4.31976611    -1.51859469    -2.41754775
   13 Si                  14.0000     0.94991505     2.45038162    -1.51198667
   14 Si                  14.0000    -2.86568803     5.50127434     0.61447075
   15 Si                  14.0000    -4.62716955     2.69539310     0.72643352
   16 H                    1.0000     1.51336679    -8.19276231     4.56258454
   17 H                    1.0000    -1.16589868     4.59765907    -1.13277710
   18 H                    1.0000    -4.60870621    -1.12983463     2.16851381
   19 O                    8.0000     2.69801119    -1.15657201    -2.67783605
   20 O                    8.0000    -2.58132916    -4.87041851     4.60280336
   21 O                    8.0000    -6.88496152    -3.66194564     0.87232131
   22 O                    8.0000    -3.92847080     4.20962630     0.73617351
   23 O                    8.0000    -0.50398977     2.94092614    -2.16757848
   24 O                    8.0000     1.94981481    -2.01193406     3.71130781
   25 O                    8.0000    -2.94879581    -0.46483629     3.23331508
   26 O                    8.0000    -4.55478825     2.10915730    -0.83730249
   27 O                    8.0000    -3.67040666     6.89281810     0.20059856
   28 O                    8.0000     5.09960479     1.74007188     1.49441558
   29 O                    8.0000     1.17921928     2.75015718     3.69493738
   30 H                    1.0000     2.08528607    -0.41527508    -2.76038837
   31 H                    1.0000    -2.67427834    -7.10873423    -0.43827003
   32 O                    8.0000    -1.73196423     5.08024313    -0.51534634
   33 O                    8.0000    -2.05488142    -1.91297186    -2.60656366
   34 O                    8.0000     2.41370545    -4.74560882     4.70947444
   35 O                    8.0000     5.12880347    -0.06432336    -2.58616001
   36 Si                  14.0000     5.50026623     2.87941306     0.36292077
   37 Si                  14.0000     1.54179122     4.36778131     3.41291351
   38 O                    8.0000    -2.08514799    -4.54067548     1.94520363
   39 O                    8.0000    -5.66903772    -2.20900950    -1.08130429
   40 H                    1.0000    -4.12626395     7.68794671    -0.06141569
   41 H                    1.0000    -1.44214391     8.24822168     4.49565099
   42 Si                  14.0000     1.52537698    -5.73697841     3.67377895
   43 O                    8.0000     4.73215071     2.36232724    -3.70072428
   44 O                    8.0000     2.69867130     6.19428188    -0.24861054
   45 Si                  14.0000     0.00727031     0.00130049     0.53927876
   46 Si                  14.0000    -2.67961552    -4.63431994     0.38566194
   47 O                    8.0000     2.11985868     4.55476687     1.86400134
   48 H                    1.0000     5.13348260    -3.30091575    -4.14118414
   49 H                    1.0000    -2.96453306     4.60032847     5.38211939
   50 Si                  14.0000    -5.75987551    -1.50553326    -2.58425445
   51 O                    8.0000     4.20455870     3.94014388     0.26479693
   52 Si                  14.0000    -1.48647261    -4.33071292     3.48348888
   53 O                    8.0000    -2.70581163    -6.20422445    -0.13745427
   54 O                    8.0000    -2.15768729     5.70247040     2.12406577
   55 O                    8.0000     6.20941865    -2.69267751     1.20613447
   56 H                    1.0000     2.68590744     1.37307584     3.52831465
   57 O                    8.0000    -4.76641554    -2.35991551    -3.64741887
   58 Si                  14.0000    -5.48701037    -2.87256875     0.45057661
   59 O                    8.0000     1.22849792    -0.55945608     1.52139260
   60 H                    1.0000    -5.18952311     3.25657933    -4.12619938
   61 H                    1.0000     2.85457918     1.94274220    -3.15486498
   62 O                    8.0000    -1.20231912     0.58709117     1.52160943
   63 O                    8.0000    -3.66959110     1.72650231     1.70018536
   64 H                    1.0000     7.68890368     4.16134622     0.99038078
   65 O                    8.0000     3.94050310    -4.18500175     0.72431583
   66 Si                  14.0000     4.63531749    -2.66910666     0.69530492
   67 H                    1.0000     3.31836913     5.20930597     5.12935194
   68 O                    8.0000    -1.47724081     7.33812960     4.21157223
   69 H                    1.0000    -8.22619295    -1.51062154    -3.44292725
   70 H                    1.0000    -7.08926326     2.69565155     1.58689584
   71 H                    1.0000     8.17798611     1.45476777    -3.58005791
   72 H                    1.0000    -3.23381201    -5.16558185     5.23285109
   73 H                    1.0000    -7.68441897    -4.10733440     1.13901746
   74 O                    8.0000     2.19719054    -5.66981046     2.15466956
   75 O                    8.0000    -1.71877155    -3.68590560    -0.60517121
   76 H                    1.0000     1.99399008    -2.85661052     4.18430735
   77 H                    1.0000    -2.64629336    -1.32324988     3.57120343
   78 O                    8.0000    -2.33544298     4.80107748     4.69005964
   79 O                    8.0000     0.08784618     5.18039232     3.56263982
   80 H                    1.0000    -4.55768521    -2.97841348    -4.34668036
   81 H                    1.0000    -2.13166977     0.39236583    -2.71978402
   82 H                    1.0000     4.14713110    -7.67140680    -0.03254629
   83 O                    8.0000    -5.17208352     0.05106981    -2.51038500
   84 O                    8.0000    -1.12868569    -2.70799447     3.74033528
   85 O                    8.0000    -5.07916309    -1.70565334     1.55146882
   86 O                    8.0000     7.27698742     1.49874104    -3.27022489
   87 H                    1.0000     4.63494332     1.17381500     2.12493614
   88 O                    8.0000     2.99283634     0.51131557     3.20236677
   89 O                    8.0000    -1.90097899     2.06422830     3.70212966
   90 H                    1.0000    -2.89740654    -1.96532407    -3.08397118
   91 O                    8.0000    -0.02643756    -5.13425922     3.62145046
   92 O                    8.0000     6.89552234     3.68750954     0.75708040
   93 O                    8.0000     2.65523417     4.91437059     4.51016413
   94 O                    8.0000     3.68966876    -6.87581631     0.22525776
   95 O                    8.0000    -4.19554325    -3.93917289     0.37402514
   96 H                    1.0000     0.44603475     2.12993260     3.78629052
   97 O                    8.0000     5.67868236     2.17784447    -1.15252895
   98 O                    8.0000     0.47048497    -2.96638613    -2.14757989
   99 H                    1.0000    -1.36467196     2.62383494    -2.48947903
  100 H                    1.0000     3.05762306    -4.53329659     5.38403347
  101 O                    8.0000    -7.31491094    -1.53430713    -3.16204424
  102 H                    1.0000     4.51569100     3.00430286    -4.37575640
  103 O                    8.0000     4.53008592    -2.08778352    -0.86843515
  104 O                    8.0000     4.85020595    -2.63758493    -3.51690010
  105 H                    1.0000     7.11399722    -2.66134837     1.50688072
  106 Si                  14.0000     5.73291550     1.48608505    -2.66310369
  107 O                    8.0000     0.57376189     1.20416715    -0.46234357
  108 O                    8.0000    -0.57190231    -1.22681384    -0.42301335
  109 O                    8.0000     3.69617614    -1.69924929     1.68612657
  110 Si                  14.0000     2.68667836     4.63047229     0.29333021
  111 O                    8.0000     1.73131481    -5.08298745    -0.48615676
  112 H                    1.0000    -1.94093223     2.91255141     4.16928802
  113 H                    1.0000    -0.39918034    -2.08137537     3.81404459
  114 Si                  14.0000    -1.46305600     5.78348387     3.63193671
  115 O                    8.0000     1.71213692     3.66886288    -0.67078941
  116 Si                  14.0000    -2.45399462     0.97923829     2.55923070
  117 H                    1.0000     2.65815128     7.09564201    -0.55785060
  118 Bi                  83.0000    -0.05458386    -0.05849847    -5.10305029

      Atomic Mass 
      ----------- 

      O                 15.994910
      H                  1.007825
      Si                27.976930
      Bi               208.980400


 Effective nuclear repulsion energy (a.u.)   32975.2490309069

            Nuclear Dipole moment (a.u.) 
            ----------------------------
        X                 Y               Z
 ---------------- ---------------- ----------------
     0.0000000000    -0.0000000000     0.0000000000



                                Z-matrix (autoz)
                                -------- 

 Units are Angstrom for bonds and degrees for angles

      Type          Name      I     J     K     L     M      Value
      ----------- --------  ----- ----- ----- ----- ----- ----------
    1 Stretch                  1    10                       1.65595
    2 Stretch                  1    60                       0.95393
    3 Stretch                  2   111                       0.96668
    4 Stretch                  3    13                       1.67094
    5 Stretch                  3    61                       0.96949
    6 Stretch                  4    15                       1.65500
    7 Stretch                  4    70                       0.95376
    8 Stretch                  5    16                       0.95383
    9 Stretch                  5    42                       1.65934
   10 Stretch                  6    24                       1.67018
   11 Stretch                  6    59                       1.67268
   12 Stretch                  6    88                       1.66881
   13 Stretch                  6   109                       1.66554
   14 Stretch                  7    10                       1.68223
   15 Stretch                  7    81                       0.96534
   16 Stretch                  8    65                       1.67716
   17 Stretch                  8    74                       1.67948
   18 Stretch                  8    94                       1.65994
   19 Stretch                  8   111                       1.65505
   20 Stretch                  9    33                       1.67101
   21 Stretch                  9    75                       1.66534
   22 Stretch                  9    98                       1.66862
   23 Stretch                  9   108                       1.67225
   24 Stretch                 10    26                       1.66346
   25 Stretch                 10    83                       1.67248
   26 Stretch                 11    98                       0.97191
   27 Stretch                 12    19                       1.68193
   28 Stretch                 12    35                       1.67269
   29 Stretch                 12   103                       1.66372
   30 Stretch                 12   104                       1.65592
   31 Stretch                 13    23                       1.66861
   32 Stretch                 13   107                       1.67221
   33 Stretch                 13   115                       1.66532
   34 Stretch                 14    22                       1.67710
   35 Stretch                 14    27                       1.65990
   36 Stretch                 14    32                       1.65502
   37 Stretch                 14    54                       1.67947
   38 Stretch                 15    22                       1.66769
   39 Stretch                 15    26                       1.67158
   40 Stretch                 15    63                       1.67448
   41 Stretch                 17    32                       0.96672
   42 Stretch                 18    85                       0.96625
   43 Stretch                 19    30                       0.96528
   44 Stretch                 20    52                       1.65616
   45 Stretch                 20    72                       0.95384
   46 Stretch                 21    58                       1.65990
   47 Stretch                 21    73                       0.95322
   48 Stretch                 23    99                       0.97208
   49 Stretch                 24    76                       0.96910
   50 Stretch                 25    77                       0.97085
   51 Stretch                 25   116                       1.66870
   52 Stretch                 27    40                       0.95325
   53 Stretch                 28    36                       1.65496
   54 Stretch                 28    87                       0.96650
   55 Stretch                 29    37                       1.68158
   56 Stretch                 29    96                       0.96467
   57 Stretch                 30   118                       3.19287
   58 Stretch                 31    53                       0.95374
   59 Stretch                 33    90                       0.96980
   60 Stretch                 34    42                       1.68660
   61 Stretch                 34   100                       0.95642
   62 Stretch                 35   106                       1.66572
   63 Stretch                 36    51                       1.67739
   64 Stretch                 36    92                       1.65986
   65 Stretch                 36    97                       1.67947
   66 Stretch                 37    47                       1.66381
   67 Stretch                 37    79                       1.67234
   68 Stretch                 37    93                       1.65604
   69 Stretch                 38    46                       1.67163
   70 Stretch                 38    52                       1.66398
   71 Stretch                 39    50                       1.66192
   72 Stretch                 39    58                       1.67932
   73 Stretch                 41    68                       0.95404
   74 Stretch                 42    74                       1.66239
   75 Stretch                 42    91                       1.66557
   76 Stretch                 43   102                       0.95638
   77 Stretch                 43   106                       1.68701
   78 Stretch                 44   110                       1.65510
   79 Stretch                 44   117                       0.95379
   80 Stretch                 45    59                       1.66445
   81 Stretch                 45    62                       1.66470
   82 Stretch                 45   107                       1.66465
   83 Stretch                 45   108                       1.66425
   84 Stretch                 46    53                       1.65497
   85 Stretch                 46    75                       1.67465
   86 Stretch                 46    95                       1.66775
   87 Stretch                 47   110                       1.67153
   88 Stretch                 48   104                       0.95393
   89 Stretch                 49    78                       0.95656
   90 Stretch                 50    57                       1.68738
   91 Stretch                 50    83                       1.66552
   92 Stretch                 50   101                       1.65916
   93 Stretch                 51   110                       1.66773
   94 Stretch                 52    84                       1.68143
   95 Stretch                 52    91                       1.67225
   96 Stretch                 54   114                       1.66215
   97 Stretch                 55    66                       1.65508
   98 Stretch                 55   105                       0.95378
   99 Stretch                 56    88                       0.97112
  100 Stretch                 57    80                       0.95660
  101 Stretch                 58    85                       1.65529
  102 Stretch                 58    95                       1.67672
  103 Stretch                 62   116                       1.67246
  104 Stretch                 63   116                       1.66554
  105 Stretch                 64    92                       0.95310
  106 Stretch                 65    66                       1.66780
  107 Stretch                 66   103                       1.67161
  108 Stretch                 66   109                       1.67462
  109 Stretch                 67    93                       0.95401
  110 Stretch                 68   114                       1.65925
  111 Stretch                 69   101                       0.95388
  112 Stretch                 71    86                       0.95380
  113 Stretch                 78   114                       1.68695
  114 Stretch                 79   114                       1.66548
  115 Stretch                 82    94                       0.95326
  116 Stretch                 84   113                       0.96450
  117 Stretch                 86   106                       1.65919
  118 Stretch                 89   112                       0.96927
  119 Stretch                 89   116                       1.67010
  120 Stretch                 97   106                       1.66232
  121 Stretch                110   115                       1.67450
  122 Bend                     1    10     7               110.60208
  123 Bend                     1    10    26               110.28689
  124 Bend                     1    10    83               111.39464
  125 Bend                     2   111     8               164.57700
  126 Bend                     3    13    23               112.46224
  127 Bend                     3    13   107               109.23031
  128 Bend                     3    13   115               107.63476
  129 Bend                     4    15    22               112.24142
  130 Bend                     4    15    26               110.72493
  131 Bend                     4    15    63               111.03331
  132 Bend                     5    42    34               108.81539
  133 Bend                     5    42    74               111.04383
  134 Bend                     5    42    91               111.18282
  135 Bend                     6    24    76               152.09269
  136 Bend                     6    59    45               173.47111
  137 Bend                     6    88    56               143.92042
  138 Bend                     6   109    66               167.54650
  139 Bend                     7    10    26               109.80523
  140 Bend                     7    10    83               105.19189
  141 Bend                     8    65    66               164.89808
  142 Bend                     8    42     5               113.01688
  143 Bend                     8    42    34               107.48171
  144 Bend                     8    42    91               108.82432
  145 Bend                     9    33    90               151.90545
  146 Bend                     9    75    46               167.50001
  147 Bend                     9    98    11               143.75095
  148 Bend                     9   108    45               173.17365
  149 Bend                    10     7    81               142.27120
  150 Bend                    10    15     4               112.77160
  151 Bend                    10    15    22               107.19440
  152 Bend                    10    15    63               106.82004
  153 Bend                    10    83    50               171.33246
  154 Bend                    12    19    30               142.24011
  155 Bend                    12    35   106               171.61325
  156 Bend                    12    66    55               112.52849
  157 Bend                    12    66    65               106.88773
  158 Bend                    12    66   109               107.42895
  159 Bend                    13     3    61               151.69363
  160 Bend                    13    23    99               143.67615
  161 Bend                    13   107    45               173.09704
  162 Bend                    13   115   110               167.79352
  163 Bend                    14    22    15               164.65997
  164 Bend                    14    32    17               164.60578
  165 Bend                    14   114    68               113.03169
  166 Bend                    14   114    78               107.47792
  167 Bend                    14   114    79               108.83982
  168 Bend                    15    10     1               111.47865
  169 Bend                    15    10     7               107.65525
  170 Bend                    15    10    83               110.27140
  171 Bend                    15    63   116               167.66471
  172 Bend                    16    42    34               110.25166
  173 Bend                    16    42    74               110.53843
  174 Bend                    16    42    91               110.28393
  175 Bend                    18    85    58               164.74969
  176 Bend                    19    12    35               105.28580
  177 Bend                    19    12   103               109.85407
  178 Bend                    19    12   104               110.58379
  179 Bend                    19    30   118               125.02839
  180 Bend                    20    52    38               110.23252
  181 Bend                    20    52    84               110.60544
  182 Bend                    20    52    91               111.39773
  183 Bend                    21    58    39               109.17135
  184 Bend                    21    58    85               111.94867
  185 Bend                    21    58    95               110.96335
  186 Bend                    22    14    27               110.88722
  187 Bend                    22    14    32               106.72095
  188 Bend                    22    14    54               107.10844
  189 Bend                    22    15    26               107.80383
  190 Bend                    22    15    63               106.40301
  191 Bend                    23    13   107               105.64711
  192 Bend                    23    13   115               112.46806
  193 Bend                    24     6    59               109.20951
  194 Bend                    24     6    88               112.56722
  195 Bend                    24     6   109               107.63430
  196 Bend                    25   116    62               105.64205
  197 Bend                    25   116    63               112.34621
  198 Bend                    25   116    89               112.57848
  199 Bend                    26    10    83               109.43840
  200 Bend                    26    15    63               108.44031
  201 Bend                    27    14    32               112.03394
  202 Bend                    27    14    54               109.15105
  203 Bend                    28    36    51               106.75823
  204 Bend                    28    36    92               112.10550
  205 Bend                    28    36    97               110.79725
  206 Bend                    29    37    47               109.82537
  207 Bend                    29    37    79               105.36462
  208 Bend                    29    37    93               110.56995
  209 Bend                    31    46    38               110.31406
  210 Bend                    31    46    75               110.44034
  211 Bend                    31    46    95               113.27368
  212 Bend                    32    14    54               110.81235
  213 Bend                    33     9    75               107.74420
  214 Bend                    33     9    98               112.35779
  215 Bend                    33     9   108               109.32271
  216 Bend                    34    42    74               108.93807
  217 Bend                    34    42    91               107.29635
  218 Bend                    35    12   103               109.27855
  219 Bend                    35    12   104               111.44790
  220 Bend                    35   106    43               107.26047
  221 Bend                    35   106    86               111.19304
  222 Bend                    35   106    97               109.48282
  223 Bend                    36    28    87               164.96528
  224 Bend                    36    51   110               164.53743
  225 Bend                    36   106    35               108.73669
  226 Bend                    36   106    43               107.41512
  227 Bend                    36   106    86               113.15469
  228 Bend                    37    29    96               142.96297
  229 Bend                    37   110    44               112.54334
  230 Bend                    37   110    51               107.21688
  231 Bend                    37   110   115               107.07891
  232 Bend                    37    79   114               171.60263
  233 Bend                    38    46    53               110.71153
  234 Bend                    38    46    75               108.43486
  235 Bend                    38    46    95               107.84287
  236 Bend                    38    52    84               109.84945
  237 Bend                    38    52    91               109.25445
  238 Bend                    39    50    57               108.86203
  239 Bend                    39    50    83               109.64607
  240 Bend                    39    50   101               111.02765
  241 Bend                    39    58    85               110.78336
  242 Bend                    39    58    95               107.04949
  243 Bend                    40    14    22               110.95136
  244 Bend                    40    14    32               111.51793
  245 Bend                    40    14    54               109.61078
  246 Bend                    41   114    54               110.44736
  247 Bend                    41   114    78               110.26013
  248 Bend                    41   114    79               110.36690
  249 Bend                    42    34   100               156.66320
  250 Bend                    42     8    65               105.39484
  251 Bend                    42     8    94               110.94771
  252 Bend                    42     8   111               110.55813
  253 Bend                    42    91    52               171.86576
  254 Bend                    43   106    86               108.84670
  255 Bend                    43   106    97               108.86987
  256 Bend                    44   110    47               110.66662
  257 Bend                    44   110    51               112.26587
  258 Bend                    44   110   115               110.99477
  259 Bend                    45    62   116               172.93607
  260 Bend                    46    52    20               111.20890
  261 Bend                    46    52    84               107.81918
  262 Bend                    46    52    91               110.20653
  263 Bend                    46    95    58               164.78411
  264 Bend                    47    37    79               109.31759
  265 Bend                    47    37    93               110.25060
  266 Bend                    47   110    51               107.81602
  267 Bend                    47   110   115               108.52151
  268 Bend                    48    12    19               110.20981
  269 Bend                    48    12    35               112.11170
  270 Bend                    48    12   103               109.99427
  271 Bend                    49    78   114               156.36532
  272 Bend                    50    58    21               110.89996
  273 Bend                    50    58    85               109.62938
  274 Bend                    50    58    95               106.36942
  275 Bend                    50    57    80               156.40811
  276 Bend                    51    36    92               110.81430
  277 Bend                    51    36    97               107.06384
  278 Bend                    51   110   115               106.38781
  279 Bend                    52    46    53               112.69346
  280 Bend                    52    46    75               107.03116
  281 Bend                    52    46    95               107.08928
  282 Bend                    52    84   113               143.09332
  283 Bend                    53    46    75               111.05649
  284 Bend                    53    46    95               112.25925
  285 Bend                    54   114    68               111.03914
  286 Bend                    54   114    78               108.93634
  287 Bend                    54   114    79               109.49748
  288 Bend                    55    66    65               112.20422
  289 Bend                    55    66   103               110.70460
  290 Bend                    55    66   109               111.03900
  291 Bend                    57    50    83               107.06074
  292 Bend                    57    50   101               108.88156
  293 Bend                    58    50    57               108.49319
  294 Bend                    58    50    83               108.26571
  295 Bend                    58    50   101               112.70168
  296 Bend                    59     6    88               105.61067
  297 Bend                    59     6   109               109.32460
  298 Bend                    59    45    62               107.66725
  299 Bend                    59    45   107               110.41350
  300 Bend                    59    45   108               110.35909
  301 Bend                    60    10     7               110.30187
  302 Bend                    60    10    26               109.92984
  303 Bend                    60    10    83               112.06738
  304 Bend                    62    45   107               110.36861
  305 Bend                    62    45   108               110.36552
  306 Bend                    62   116    63               109.35534
  307 Bend                    62   116    89               109.21282
  308 Bend                    63   116    89               107.64733
  309 Bend                    64    36    28               112.10872
  310 Bend                    64    36    51               110.53791
  311 Bend                    64    36    97               109.42973
  312 Bend                    65     8    74               107.09699
  313 Bend                    65     8    94               110.87658
  314 Bend                    65     8   111               106.75178
  315 Bend                    65    66   103               107.82638
  316 Bend                    65    66   109               106.40795
  317 Bend                    66    12    19               108.06293
  318 Bend                    66    12    35               110.38959
  319 Bend                    66    12   104               110.87834
  320 Bend                    67    37    29               110.28374
  321 Bend                    67    37    47               109.84857
  322 Bend                    67    37    79               112.10370
  323 Bend                    68   114    78               108.79026
  324 Bend                    68   114    79               111.20960
  325 Bend                    69    50    39               110.37382
  326 Bend                    69    50    57               110.35700
  327 Bend                    69    50    83               110.46884
  328 Bend                    70    15    22               113.17174
  329 Bend                    70    15    26               110.45935
  330 Bend                    70    15    63               110.36804
  331 Bend                    71   106    35               110.15805
  332 Bend                    71   106    43               110.22295
  333 Bend                    71   106    97               110.76892
  334 Bend                    72    52    38               109.78152
  335 Bend                    72    52    84               110.41506
  336 Bend                    72    52    91               112.05911
  337 Bend                    73    58    39               109.62832
  338 Bend                    73    58    85               111.41489
  339 Bend                    73    58    95               111.04952
  340 Bend                    74     8    94               109.14392
  341 Bend                    74     8   111               110.81561
  342 Bend                    74    42    91               109.46265
  343 Bend                    75     9    98               112.55700
  344 Bend                    75     9   108               109.13611
  345 Bend                    75    46    95               106.34011
  346 Bend                    77    25   116               144.42598
  347 Bend                    78   114    79               107.26437
  348 Bend                    79    37    93               111.39826
  349 Bend                    82     8    65               110.92232
  350 Bend                    82     8    74               109.59939
  351 Bend                    82     8   111               111.53520
  352 Bend                    83    50   101               111.24908
  353 Bend                    84    52    91               105.38797
  354 Bend                    85    58    95               106.79985
  355 Bend                    86   106    97               111.08168
  356 Bend                    88     6   109               112.43316
  357 Bend                    92    36    97               109.16853
  358 Bend                    94     8   111               112.02928
  359 Bend                    98     9   108               105.65673
  360 Bend                   102    43   106               156.49846
  361 Bend                   103    12   104               110.27201
  362 Bend                   103    66   109               108.46817
  363 Bend                   105    66    65               113.15457
  364 Bend                   105    66   103               110.47985
  365 Bend                   105    66   109               110.31221
  366 Bend                   106    36    28               110.43531
  367 Bend                   106    36    51               105.34603
  368 Bend                   106    36    92               111.08422
  369 Bend                   107    13   115               109.34008
  370 Bend                   107    45   108               107.68293
  371 Bend                   110    37    29               107.86764
  372 Bend                   110    37    79               110.12698
  373 Bend                   110    37    93               111.29304
  374 Bend                   112    89   116               152.22261
  375 Bend                   114    14    22               105.40730
  376 Bend                   114    14    27               110.98186
  377 Bend                   114    14    32               110.52486
  378 Bend                   117   110    47               110.22834
  379 Bend                   117   110    51               113.30425
  380 Bend                   117   110   115               110.39666
  381 Torsion                  1    10     7    81        -132.10976
  382 Torsion                  1    10    15     4          73.86799
  383 Torsion                  1    10    15    22         -50.16084
  384 Torsion                  1    10    15    63        -163.88662
  385 Torsion                 10     1    26    15         173.37498
  386 Torsion                  1    10    83    50         144.16410
  387 Torsion                  2   111     8    65         -15.73391
  388 Torsion                  2   111     8    74         100.55458
  389 Torsion                  2   111     8    94        -137.28439
  390 Torsion                  3    13    23    99          81.43804
  391 Torsion                  3    13   107    45        -125.29807
  392 Torsion                  3    13   115   110         -67.78768
  393 Torsion                  4    15    22    14         176.27422
  394 Torsion                  4    15    10     7        -164.66123
  395 Torsion                  4    15    10    83         -50.41125
  396 Torsion                 10    26     4    15         177.53062
  397 Torsion                  4    15    63   116        -152.51469
  398 Torsion                  5    42    34   100          21.13469
  399 Torsion                  5    42     8    65        -131.80373
  400 Torsion                  5    42     8    94         -11.72533
  401 Torsion                  5    42     8   111         113.20038
  402 Torsion                  8    74     5    42         177.88600
  403 Torsion                  5    42    91    52         179.51251
  404 Torsion                  6    59    45    62         -70.74110
  405 Torsion                  6    59    45   107          49.80976
  406 Torsion                  6    59    45   108         168.74384
  407 Torsion                  6   109    66    55        -156.02043
  408 Torsion                  6   109    66    65         -33.65236
  409 Torsion                  6   109    66   103          82.12042
  410 Torsion                 10     7     1    60         177.18492
  411 Torsion                  7    10    15    22          71.30993
  412 Torsion                  7    10    15    63         -42.41584
  413 Torsion                 10     7    26    15         179.78278
  414 Torsion                  7    10    83    50          24.29699
  415 Torsion                  8    65    66    55         175.97016
  416 Torsion                  8    65    66   103         -61.86303
  417 Torsion                  8    65    66   109          54.34127
  418 Torsion                  9    75    46    38         -82.29010
  419 Torsion                  9    75    46    53         155.85308
  420 Torsion                  9    75    46    95          33.45085
  421 Torsion                  9   108    45    59         -61.05986
  422 Torsion                  9   108    45    62        -179.94433
  423 Torsion                  9   108    45   107          59.52337
  424 Torsion                 10    83    50    39          63.64653
  425 Torsion                 10    83    50    57         -54.29896
  426 Torsion                 10    83    50   101        -173.15035
  427 Torsion                 11    98     9    33          81.16697
  428 Torsion                 11    98     9    75        -156.98362
  429 Torsion                 11    98     9   108         -37.96676
  430 Torsion                 12    19    30   118         131.16205
  431 Torsion                 12    35   106    43         -61.30208
  432 Torsion                 12    35   106    86         179.79801
  433 Torsion                 12    35   106    97          56.67796
  434 Torsion                 13   107    45    59        -167.91155
  435 Torsion                 13   107    45    62         -48.99091
  436 Torsion                 13   107    45   108          71.53946
  437 Torsion                 13   115   110    44         155.10771
  438 Torsion                 13   115   110    47         -83.07316
  439 Torsion                 13   115   110    51          32.70328
  440 Torsion                 14    22    15    26         -61.52522
  441 Torsion                 14    22    15    63          54.63339
  442 Torsion                 15    22    14    27         149.42388
  443 Torsion                 15    22    14    32          27.15377
  444 Torsion                 15    22    14    54         -91.57339
  445 Torsion                 15    63   116    25        -170.10177
  446 Torsion                 15    63   116    62         -53.14082
  447 Torsion                 15    63   116    89          65.39889
  448 Torsion                 17    32    14    22         -15.95608
  449 Torsion                 17    32    14    27        -137.50217
  450 Torsion                 17    32    14    54         100.32668
  451 Torsion                 18    85    58    21         134.36328
  452 Torsion                 18    85    58    39        -103.52008
  453 Torsion                 18    85    58    95          12.72247
  454 Torsion                 19    12    35   106          32.53954
  455 Torsion                 19    12    66    55        -165.21087
  456 Torsion                 19    12    66    65          71.18193
  457 Torsion                 19    12    66   109         -42.69152
  458 Torsion                 12    19   103    66        -178.73828
  459 Torsion                 12    19   104    48         177.41849
  460 Torsion                 20    52    46    53         -73.41280
  461 Torsion                 20    52    46    75         164.21635
  462 Torsion                 20    52    46    95          50.51252
  463 Torsion                 46    38    20    52        -173.47618
  464 Torsion                 20    52    84   113         132.35150
  465 Torsion                 20    52    91    42        -151.34245
  466 Torsion                 21    58    50    57        -109.92922
  467 Torsion                 21    58    50    83         134.21126
  468 Torsion                 21    58    50   101          10.72201
  469 Torsion                 50    39    21    58        -179.13314
  470 Torsion                 21    58    95    46        -154.01061
  471 Torsion                 14    22    27    40         177.32458
  472 Torsion                 22    14   114    68        -131.41515
  473 Torsion                 22    14   114    78         -11.36174
  474 Torsion                 22    14   114    79         104.49965
  475 Torsion                 14    22    54   114        -176.44362
  476 Torsion                 15    22     4    70         178.72441
  477 Torsion                 22    15    10    83        -174.44008
  478 Torsion                 10    26    22    15        -173.21242
  479 Torsion                 22    15    63   116         -30.10761
  480 Torsion                 23    13     3    61         117.89865
  481 Torsion                 23    13   107    45          -4.10452
  482 Torsion                 23    13   115   110         167.78835
  483 Torsion                 24     6    59    45         125.03574
  484 Torsion                 24     6    88    56         -81.88994
  485 Torsion                 24     6   109    66          68.84351
  486 Torsion                 25   116    62    45           2.86340
  487 Torsion                 25   116    89   112        -119.32922
  488 Torsion                 10    26     1    60        -177.33927
  489 Torsion                 26    10     7    81         105.94732
  490 Torsion                 26    10    83    50         -93.61695
  491 Torsion                 15    26     4    70        -175.65273
  492 Torsion                 26    15    63   116          85.62285
  493 Torsion                 27    14   114    68         -11.29802
  494 Torsion                 27    14   114    78         108.75539
  495 Torsion                 27    14   114    79        -135.38322
  496 Torsion                 14    27    54   114        -176.54513
  497 Torsion                 28    36    51   110         -28.20618
  498 Torsion                 36    28    92    64         178.45384
  499 Torsion                 28    36   106    35          10.58176
  500 Torsion                 28    36   106    43         126.35232
  501 Torsion                 28    36   106    86        -113.49121
  502 Torsion                 36    28    97   106        -172.74573
  503 Torsion                 29    37   110    44         164.66852
  504 Torsion                 29    37   110    51         -71.40513
  505 Torsion                 29    37   110   115          42.43614
  506 Torsion                 37    29    47   110        -179.95657
  507 Torsion                 29    37    79   114         -30.33521
  508 Torsion                 37    29    93    67        -176.97817
  509 Torsion                 30    19    12    35         -12.03477
  510 Torsion                 30    19    12   103         105.51932
  511 Torsion                 30    19    12   104        -132.53588
  512 Torsion                 14    32    27    40        -178.99178
  513 Torsion                 32    14   114    68         113.63421
  514 Torsion                 32    14   114    78        -126.31239
  515 Torsion                 32    14   114    79         -10.45100
  516 Torsion                 14    32    54   114         172.90623
  517 Torsion                 33     9    75    46         -68.24371
  518 Torsion                 33     9   108    45        -113.78821
  519 Torsion                 16     5    34    42        -178.70739
  520 Torsion                 34    42     8    65         -11.72549
  521 Torsion                 34    42     8    94         108.35291
  522 Torsion                 34    42     8   111        -126.72138
  523 Torsion                  8    74    34    42         175.41388
  524 Torsion                 34    42    91    52          60.63439
  525 Torsion                 35    12    66    55         -50.56197
  526 Torsion                 35    12    66    65        -174.16917
  527 Torsion                 35    12    66   109          71.95738
  528 Torsion                 12    35   103    66        -174.71784
  529 Torsion                 12    35   104    48         179.57886
  530 Torsion                 35   106    43   102        -142.76836
  531 Torsion                 71    86    35   106         175.43629
  532 Torsion                 35   106    36    51        -104.33670
  533 Torsion                 35   106    36    92         135.61533
  534 Torsion                 36    97    35   106         173.37747
  535 Torsion                 36    51   110    44        -175.18405
  536 Torsion                 36    51   110    47          62.66461
  537 Torsion                 36    51   110   115         -53.58625
  538 Torsion                 37    79   114    54         -58.58431
  539 Torsion                 37    79   114    68         178.32821
  540 Torsion                 37    79   114    78          59.48501
  541 Torsion                 31    53    38    46         175.59874
  542 Torsion                 38    46    95    58          66.40920
  543 Torsion                 52    38    20    72         177.68515
  544 Torsion                 38    52    84   113        -105.74207
  545 Torsion                 38    52    91    42          86.63075
  546 Torsion                 39    50    57    80         102.06881
  547 Torsion                 50    39   101    69        -173.86403
  548 Torsion                 58    39    21    73         178.35455
  549 Torsion                 39    58    95    46          86.95503
  550 Torsion                 42    91    52    84         -31.35012
  551 Torsion                 71    86    43   106         177.74998
  552 Torsion                 43   106    36    51          11.43386
  553 Torsion                 43   106    36    92        -108.61412
  554 Torsion                 36    97    43   106        -175.04954
  555 Torsion                 44   110    37    79          50.17212
  556 Torsion                 44   110    37    93         -73.87550
  557 Torsion                 37    47    44   110        -177.95486
  558 Torsion                 45    59     6    88           3.74970
  559 Torsion                 45    59     6   109        -117.43901
  560 Torsion                 45    62   116    63        -118.25668
  561 Torsion                 45    62   116    89         124.18273
  562 Torsion                 45   107    13   115         117.15519
  563 Torsion                 45   108     9    75         128.59747
  564 Torsion                 45   108     9    98           7.33655
  565 Torsion                 46    75     9    98         167.32677
  566 Torsion                 46    75     9   108          50.36133
  567 Torsion                 46    95    58    85         -31.74887
  568 Torsion                 47    37    29    96        -105.74429
  569 Torsion                 47    37    79   114          87.63621
  570 Torsion                 37    47    93    67         177.29842
  571 Torsion                110    47    44   117         175.59623
  572 Torsion                 49    78   114    54        -101.24797
  573 Torsion                 49    78   114    68          19.92641
  574 Torsion                 49    78   114    79         140.31871
  575 Torsion                 51    36    28    87          13.83965
  576 Torsion                 36    51    92    64        -179.29232
  577 Torsion                 51    36   106    86         131.59033
  578 Torsion                 36    51    97   106         176.16560
  579 Torsion                110    51    44   117        -179.43613
  580 Torsion                 51   110    37    79         174.09847
  581 Torsion                 51   110    37    93          50.05084
  582 Torsion                 37    47    51   110         173.86085
  583 Torsion                 52    91    42    74         -57.43627
  584 Torsion                 53    46    52    84         165.17071
  585 Torsion                 53    46    52    91          50.63182
  586 Torsion                 46    53    38    52        -178.39173
  587 Torsion                 53    46    95    58        -171.36892
  588 Torsion                 14    54    27    40        -178.46797
  589 Torsion                 41    68    54   114         173.70265
  590 Torsion                 55    66    12   104          73.44433
  591 Torsion                 12   103    55    66         179.70198
  592 Torsion                 56    88     6    59          37.19268
  593 Torsion                 56    88     6   109         156.34125
  594 Torsion                 57    50    58    85         125.94701
  595 Torsion                 57    50    58    95          10.82221
  596 Torsion                 50    57    39    58        -174.25698
  597 Torsion                 50    57   101    69         179.48527
  598 Torsion                 58    95    46    75         -49.73044
  599 Torsion                 59     6    24    76         123.25750
  600 Torsion                 59     6   109    66         -49.66778
  601 Torsion                 59    45    62   116         -70.47844
  602 Torsion                 61     3    13   107        -125.14431
  603 Torsion                 61     3    13   115          -6.52884
  604 Torsion                 62   116    25    77          37.59315
  605 Torsion                 62   116    89   112         123.66124
  606 Torsion                 15    63     4    70         176.80299
  607 Torsion                 63    15    10    83          71.83414
  608 Torsion                 10    26    63    15         175.53619
  609 Torsion                 63   116    25    77         156.75089
  610 Torsion                 63   116    89   112           5.03002
  611 Torsion                 65     8    42    91         104.16753
  612 Torsion                  8    65    74    42        -176.54270
  613 Torsion                  8    65    94    82         177.39921
  614 Torsion                 66    65    55   105         178.41176
  615 Torsion                 65    66    12   104         -50.16287
  616 Torsion                 12   103    65    66        -174.88757
  617 Torsion                 66    65     8    74         -90.65686
  618 Torsion                 66    65     8    94         150.36197
  619 Torsion                 66    65     8   111          28.08416
  620 Torsion                 66   109     6    88        -166.62265
  621 Torsion                 14    54    68   114         177.91519
  622 Torsion                  8    74    94    82        -178.58189
  623 Torsion                 16     5    74    42         173.61385
  624 Torsion                 74    42    34   100        -100.06171
  625 Torsion                 75     9    33    90          -7.63363
  626 Torsion                 75    46    52    84          42.79986
  627 Torsion                 75    46    52    91         -71.73903
  628 Torsion                 46    75    38    52        -175.30744
  629 Torsion                 31    53    75    46        -176.22325
  630 Torsion                 76    24     6    88        -119.78077
  631 Torsion                 76    24     6   109           4.67226
  632 Torsion                 77    25   116    89         -81.51951
  633 Torsion                 14    54    78   114         175.34654
  634 Torsion                 41    68    78   114        -179.12478
  635 Torsion                 79    37    29    96          11.88473
  636 Torsion                 79    37   110   115         -72.06027
  637 Torsion                 37    79    47   110         173.64234
  638 Torsion                 37    79    93    67         179.81027
  639 Torsion                 14    54    79   114        -173.47611
  640 Torsion                 41    68    79   114        -174.43048
  641 Torsion                 80    57    50    83        -139.47496
  642 Torsion                 80    57    50   101         -19.10194
  643 Torsion                 81     7    10    83         -11.71848
  644 Torsion                 10    83     1    60        -179.98676
  645 Torsion                 10    83    26    15        -172.91361
  646 Torsion                 83    50    58    85          10.08749
  647 Torsion                 83    50    58    95        -105.03731
  648 Torsion                 50    83    39    58         176.44813
  649 Torsion                 50    83   101    69         174.22311
  650 Torsion                 52    84    20    72        -176.96042
  651 Torsion                 84    52    46    95         -70.90397
  652 Torsion                 46    38    84    52         179.65475
  653 Torsion                 58    85    21    73         179.06158
  654 Torsion                 85    58    50   101        -113.40176
  655 Torsion                 50    39    85    58        -175.58649
  656 Torsion                 86   106    43   102         -22.36651
  657 Torsion                 86   106    36    92          11.54235
  658 Torsion                 36    97    86   106        -178.11166
  659 Torsion                 87    28    36    92         135.36332
  660 Torsion                 87    28    36    97        -102.40344
  661 Torsion                 90    33     9    98         116.91575
  662 Torsion                 90    33     9   108        -126.11902
  663 Torsion                 16     5    91    42        -174.76059
  664 Torsion                 91    42    34   100         141.52751
  665 Torsion                 91    42     8    94        -135.75407
  666 Torsion                 91    42     8   111         -10.82836
  667 Torsion                  8    74    91    42        -173.50976
  668 Torsion                 52    91    20    72         179.37624
  669 Torsion                 91    52    46    95         174.55714
  670 Torsion                 46    38    91    52         173.55323
  671 Torsion                 91    52    84   113          11.83768
  672 Torsion                 92    36    51   110        -150.54435
  673 Torsion                 36    92    97   106         176.63558
  674 Torsion                 93    37    29    96         132.36603
  675 Torsion                 93    37   110   115         163.89211
  676 Torsion                 37    93    47   110        -173.91470
  677 Torsion                 93    37    79   114        -150.27084
  678 Torsion                  8    94    74    42        -176.48393
  679 Torsion                 46    95    38    52         173.82097
  680 Torsion                 31    53    95    46        -179.25574
  681 Torsion                 58    95    21    73        -177.27664
  682 Torsion                 95    58    50   101         131.47344
  683 Torsion                 50    39    95    58         174.73374
  684 Torsion                 97    36    51   110          90.49980
  685 Torsion                 36    97    92    64        -179.16246
  686 Torsion                 97   106    43   102          98.85368
  687 Torsion                 71    86    97   106        -173.33199
  688 Torsion                 99    23    13   107         -37.63499
  689 Torsion                 99    23    13   115        -156.84454
  690 Torsion                 50   101    39    58         177.89962
  691 Torsion                103    12    35   106         -85.40337
  692 Torsion                 12   103   104    48        -177.14655
  693 Torsion                 66   103    55   105        -175.41819
  694 Torsion                104    12    35   106         152.47062
  695 Torsion                104    12    66   109        -164.03632
  696 Torsion                 12   104   103    66         173.77867
  697 Torsion                107    13   115   110          50.75729
  698 Torsion                107    45    62   116         168.94244
  699 Torsion                108    45    62   116          50.03257
  700 Torsion                 66   109    55   105         176.86546
  701 Torsion                 12   103   109    66         175.09335
  702 Torsion                  8   111    74    42         172.93965
  703 Torsion                  8   111    94    82        -178.94660
  704 Torsion                110   115    44   117        -176.04946
  705 Torsion                 37    47   115   110        -175.78499


            XYZ format geometry
            -------------------
   118
 geometry
 O                    -4.89927418     2.60429219    -3.49354101
 H                     1.15490660    -4.61108060    -1.10222090
 O                     2.01634640     1.89121431    -2.67048251
 O                    -6.19020822     2.72319909     1.26972703
 O                     1.54708079    -7.28654210     4.26690075
 Si                    2.49121484    -0.94052136     2.55007945
 O                    -2.74185314     1.13645019    -2.64295147
 Si                    2.88298604    -5.48352761     0.63294834
 Si                   -0.96995671    -2.47237720    -1.46539315
 Si                   -4.36080021     1.50740596    -2.37592177
 H                     1.32467346    -2.65225772    -2.48860637
 Si                    4.31976611    -1.51859469    -2.41754775
 Si                    0.94991505     2.45038162    -1.51198667
 Si                   -2.86568803     5.50127434     0.61447075
 Si                   -4.62716955     2.69539310     0.72643352
 H                     1.51336679    -8.19276231     4.56258454
 H                    -1.16589868     4.59765907    -1.13277710
 H                    -4.60870621    -1.12983463     2.16851381
 O                     2.69801119    -1.15657201    -2.67783605
 O                    -2.58132916    -4.87041851     4.60280336
 O                    -6.88496152    -3.66194564     0.87232131
 O                    -3.92847080     4.20962630     0.73617351
 O                    -0.50398977     2.94092614    -2.16757848
 O                     1.94981481    -2.01193406     3.71130781
 O                    -2.94879581    -0.46483629     3.23331508
 O                    -4.55478825     2.10915730    -0.83730249
 O                    -3.67040666     6.89281810     0.20059856
 O                     5.09960479     1.74007188     1.49441558
 O                     1.17921928     2.75015718     3.69493738
 H                     2.08528607    -0.41527508    -2.76038837
 H                    -2.67427834    -7.10873423    -0.43827003
 O                    -1.73196423     5.08024313    -0.51534634
 O                    -2.05488142    -1.91297186    -2.60656366
 O                     2.41370545    -4.74560882     4.70947444
 O                     5.12880347    -0.06432336    -2.58616001
 Si                    5.50026623     2.87941306     0.36292077
 Si                    1.54179122     4.36778131     3.41291351
 O                    -2.08514799    -4.54067548     1.94520363
 O                    -5.66903772    -2.20900950    -1.08130429
 H                    -4.12626395     7.68794671    -0.06141569
 H                    -1.44214391     8.24822168     4.49565099
 Si                    1.52537698    -5.73697841     3.67377895
 O                     4.73215071     2.36232724    -3.70072428
 O                     2.69867130     6.19428188    -0.24861054
 Si                    0.00727031     0.00130049     0.53927876
 Si                   -2.67961552    -4.63431994     0.38566194
 O                     2.11985868     4.55476687     1.86400134
 H                     5.13348260    -3.30091575    -4.14118414
 H                    -2.96453306     4.60032847     5.38211939
 Si                   -5.75987551    -1.50553326    -2.58425445
 O                     4.20455870     3.94014388     0.26479693
 Si                   -1.48647261    -4.33071292     3.48348888
 O                    -2.70581163    -6.20422445    -0.13745427
 O                    -2.15768729     5.70247040     2.12406577
 O                     6.20941865    -2.69267751     1.20613447
 H                     2.68590744     1.37307584     3.52831465
 O                    -4.76641554    -2.35991551    -3.64741887
 Si                   -5.48701037    -2.87256875     0.45057661
 O                     1.22849792    -0.55945608     1.52139260
 H                    -5.18952311     3.25657933    -4.12619938
 H                     2.85457918     1.94274220    -3.15486498
 O                    -1.20231912     0.58709117     1.52160943
 O                    -3.66959110     1.72650231     1.70018536
 H                     7.68890368     4.16134622     0.99038078
 O                     3.94050310    -4.18500175     0.72431583
 Si                    4.63531749    -2.66910666     0.69530492
 H                     3.31836913     5.20930597     5.12935194
 O                    -1.47724081     7.33812960     4.21157223
 H                    -8.22619295    -1.51062154    -3.44292725
 H                    -7.08926326     2.69565155     1.58689584
 H                     8.17798611     1.45476777    -3.58005791
 H                    -3.23381201    -5.16558185     5.23285109
 H                    -7.68441897    -4.10733440     1.13901746
 O                     2.19719054    -5.66981046     2.15466956
 O                    -1.71877155    -3.68590560    -0.60517121
 H                     1.99399008    -2.85661052     4.18430735
 H                    -2.64629336    -1.32324988     3.57120343
 O                    -2.33544298     4.80107748     4.69005964
 O                     0.08784618     5.18039232     3.56263982
 H                    -4.55768521    -2.97841348    -4.34668036
 H                    -2.13166977     0.39236583    -2.71978402
 H                     4.14713110    -7.67140680    -0.03254629
 O                    -5.17208352     0.05106981    -2.51038500
 O                    -1.12868569    -2.70799447     3.74033528
 O                    -5.07916309    -1.70565334     1.55146882
 O                     7.27698742     1.49874104    -3.27022489
 H                     4.63494332     1.17381500     2.12493614
 O                     2.99283634     0.51131557     3.20236677
 O                    -1.90097899     2.06422830     3.70212966
 H                    -2.89740654    -1.96532407    -3.08397118
 O                    -0.02643756    -5.13425922     3.62145046
 O                     6.89552234     3.68750954     0.75708040
 O                     2.65523417     4.91437059     4.51016413
 O                     3.68966876    -6.87581631     0.22525776
 O                    -4.19554325    -3.93917289     0.37402514
 H                     0.44603475     2.12993260     3.78629052
 O                     5.67868236     2.17784447    -1.15252895
 O                     0.47048497    -2.96638613    -2.14757989
 H                    -1.36467196     2.62383494    -2.48947903
 H                     3.05762306    -4.53329659     5.38403347
 O                    -7.31491094    -1.53430713    -3.16204424
 H                     4.51569100     3.00430286    -4.37575640
 O                     4.53008592    -2.08778352    -0.86843515
 O                     4.85020595    -2.63758493    -3.51690010
 H                     7.11399722    -2.66134837     1.50688072
 Si                    5.73291550     1.48608505    -2.66310369
 O                     0.57376189     1.20416715    -0.46234357
 O                    -0.57190231    -1.22681384    -0.42301335
 O                     3.69617614    -1.69924929     1.68612657
 Si                    2.68667836     4.63047229     0.29333021
 O                     1.73131481    -5.08298745    -0.48615676
 H                    -1.94093223     2.91255141     4.16928802
 H                    -0.39918034    -2.08137537     3.81404459
 Si                   -1.46305600     5.78348387     3.63193671
 O                     1.71213692     3.66886288    -0.67078941
 Si                   -2.45399462     0.97923829     2.55923070
 H                     2.65815128     7.09564201    -0.55785060
 Bi                   -0.05458386    -0.05849847    -5.10305029

 ==============================================================================
                                internuclear distances
 ------------------------------------------------------------------------------
       center one      |      center two      | atomic units |  angstroms
 ------------------------------------------------------------------------------
   10 Si               |   1 O                |     3.12930  |     1.65595
   10 Si               |   7 O                |     3.17896  |     1.68223
   13 Si               |   3 O                |     3.15763  |     1.67094
   15 Si               |   4 O                |     3.12750  |     1.65500
   16 H                |   5 O                |     1.80249  |     0.95383
   19 O                |  12 Si               |     3.17839  |     1.68193
   22 O                |  14 Si               |     3.16926  |     1.67710
   22 O                |  15 Si               |     3.15147  |     1.66769
   23 O                |  13 Si               |     3.15322  |     1.66861
   24 O                |   6 Si               |     3.15618  |     1.67018
   26 O                |  10 Si               |     3.14348  |     1.66346
   26 O                |  15 Si               |     3.15883  |     1.67158
   27 O                |  14 Si               |     3.13675  |     1.65990
   30 H                |  19 O                |     1.82412  |     0.96528
   32 O                |  14 Si               |     3.12753  |     1.65502
   32 O                |  17 H                |     1.82683  |     0.96672
   33 O                |   9 Si               |     3.15775  |     1.67101
   35 O                |  12 Si               |     3.16092  |     1.67269
   36 Si               |  28 O                |     3.12743  |     1.65496
   37 Si               |  29 O                |     3.17772  |     1.68158
   40 H                |  27 O                |     1.80138  |     0.95325
   42 Si               |   5 O                |     3.13570  |     1.65934
   42 Si               |  34 O                |     3.18720  |     1.68660
   46 Si               |  38 O                |     3.15891  |     1.67163
   47 O                |  37 Si               |     3.14414  |     1.66381
   50 Si               |  39 O                |     3.14058  |     1.66192
   51 O                |  36 Si               |     3.16981  |     1.67739
   52 Si               |  20 O                |     3.12968  |     1.65616
   52 Si               |  38 O                |     3.14446  |     1.66398
   53 O                |  31 H                |     1.80231  |     0.95374
   53 O                |  46 Si               |     3.12745  |     1.65497
   54 O                |  14 Si               |     3.17374  |     1.67947
   57 O                |  50 Si               |     3.18869  |     1.68738
   58 Si               |  21 O                |     3.13675  |     1.65990
   58 Si               |  39 O                |     3.17345  |     1.67932
   59 O                |   6 Si               |     3.16091  |     1.67268
   59 O                |  45 Si               |     3.14535  |     1.66445
   60 H                |   1 O                |     1.80266  |     0.95393
   61 H                |   3 O                |     1.83208  |     0.96949
   62 O                |  45 Si               |     3.14583  |     1.66470
   63 O                |  15 Si               |     3.16432  |     1.67448
   65 O                |   8 Si               |     3.16937  |     1.67716
   66 Si               |  55 O                |     3.12765  |     1.65508
   66 Si               |  65 O                |     3.15168  |     1.66780
   68 O                |  41 H                |     1.80288  |     0.95404
   70 H                |   4 O                |     1.80234  |     0.95376
   72 H                |  20 O                |     1.80250  |     0.95384
   73 H                |  21 O                |     1.80133  |     0.95322
   74 O                |   8 Si               |     3.17376  |     1.67948
   74 O                |  42 Si               |     3.14146  |     1.66239
   75 O                |   9 Si               |     3.14704  |     1.66534
   75 O                |  46 Si               |     3.16463  |     1.67465
   76 H                |  24 O                |     1.83134  |     0.96910
   77 H                |  25 O                |     1.83464  |     0.97085
   78 O                |  49 H                |     1.80763  |     0.95656
   79 O                |  37 Si               |     3.16026  |     1.67234
   80 H                |  57 O                |     1.80770  |     0.95660
   81 H                |   7 O                |     1.82424  |     0.96534
   83 O                |  10 Si               |     3.16052  |     1.67248
   83 O                |  50 Si               |     3.14738  |     1.66552
   84 O                |  52 Si               |     3.17744  |     1.68143
   85 O                |  18 H                |     1.82595  |     0.96625
   85 O                |  58 Si               |     3.12805  |     1.65529
   86 O                |  71 H                |     1.80242  |     0.95380
   87 H                |  28 O                |     1.82641  |     0.96650
   88 O                |   6 Si               |     3.15360  |     1.66881
   88 O                |  56 H                |     1.83515  |     0.97112
   90 H                |  33 O                |     1.83265  |     0.96980
   91 O                |  42 Si               |     3.14748  |     1.66557
   91 O                |  52 Si               |     3.16010  |     1.67225
   92 O                |  36 Si               |     3.13667  |     1.65986
   92 O                |  64 H                |     1.80110  |     0.95310
   93 O                |  37 Si               |     3.12946  |     1.65604
   93 O                |  67 H                |     1.80281  |     0.95401
   94 O                |   8 Si               |     3.13684  |     1.65994
   94 O                |  82 H                |     1.80139  |     0.95326
   95 O                |  46 Si               |     3.15160  |     1.66775
   95 O                |  58 Si               |     3.16854  |     1.67672
   96 H                |  29 O                |     1.82296  |     0.96467
   97 O                |  36 Si               |     3.17374  |     1.67947
   98 O                |   9 Si               |     3.15324  |     1.66862
   98 O                |  11 H                |     1.83665  |     0.97191
   99 H                |  23 O                |     1.83697  |     0.97208
  100 H                |  34 O                |     1.80737  |     0.95642
  101 O                |  50 Si               |     3.13535  |     1.65916
  101 O                |  69 H                |     1.80258  |     0.95388
  102 H                |  43 O                |     1.80729  |     0.95638
  103 O                |  12 Si               |     3.14397  |     1.66372
  103 O                |  66 Si               |     3.15889  |     1.67161
  104 O                |  12 Si               |     3.12924  |     1.65592
  104 O                |  48 H                |     1.80267  |     0.95393
  105 H                |  55 O                |     1.80238  |     0.95378
  106 Si               |  35 O                |     3.14776  |     1.66572
  106 Si               |  43 O                |     3.18798  |     1.68701
  106 Si               |  86 O                |     3.13542  |     1.65919
  106 Si               |  97 O                |     3.14133  |     1.66232
  107 O                |  13 Si               |     3.16002  |     1.67221
  107 O                |  45 Si               |     3.14573  |     1.66465
  108 O                |   9 Si               |     3.16010  |     1.67225
  108 O                |  45 Si               |     3.14497  |     1.66425
  109 O                |   6 Si               |     3.14741  |     1.66554
  109 O                |  66 Si               |     3.16456  |     1.67462
  110 Si               |  44 O                |     3.12768  |     1.65510
[...]
  504 Torsion                 29    37   110    51         -75.38023   -3.97510
  505 Torsion                 29    37   110   115          37.52357   -4.91257
  506 Torsion                 37    29    47   110         177.08032   -2.96311
  507 Torsion                 29    37    79   114         -46.02401  -15.68880
  508 Torsion                 37    29    93    67        -176.58744    0.39073
  509 Torsion                 30    19    12    35         -10.89852    1.13625
  510 Torsion                 30    19    12   103         105.96601    0.44669
  511 Torsion                 30    19    12   104        -131.97294    0.56294
  512 Torsion                 14    32    27    40        -178.43509    0.55669
  513 Torsion                 32    14   114    68         118.34586    4.71165
  514 Torsion                 32    14   114    78        -121.97517    4.33722
  515 Torsion                 32    14   114    79          -6.92901    3.52199
  516 Torsion                 14    32    54   114         170.15496   -2.75127
  517 Torsion                 33     9    75    46         -79.06342  -10.81972
  518 Torsion                 33     9   108    45        -122.54755   -8.75935
  519 Torsion                 16     5    34    42        -178.94913   -0.24173
  520 Torsion                 34    42     8    65          -7.61979    4.10570
  521 Torsion                 34    42     8    94         111.87933    3.52641
  522 Torsion                 34    42     8   111        -122.09534    4.62603
  523 Torsion                  8    74    34    42         176.03063    0.61675
  524 Torsion                 34    42    91    52          75.93319   15.29881
  525 Torsion                 35    12    66    55         -45.79157    4.77040
  526 Torsion                 35    12    66    65        -169.76724    4.40193
  527 Torsion                 35    12    66   109          77.65533    5.69795
  528 Torsion                 12    35   103    66        -174.84307   -0.12523
  529 Torsion                 12    35   104    48         178.49920   -1.07965
  530 Torsion                 35   106    43   102        -139.16386    3.60450
  531 Torsion                 71    86    35   106         174.21029   -1.22600
  532 Torsion                 35   106    36    51        -108.00052   -3.66382
  533 Torsion                 35   106    36    92         132.24401   -3.37131
  534 Torsion                 36    97    35   106         172.49061   -0.88686
  535 Torsion                 36    51   110    44        -178.19895   -3.01490
  536 Torsion                 36    51   110    47          59.34399   -3.32062
  537 Torsion                 36    51   110   115         -56.02198   -2.43573
  538 Torsion                 37    79   114    54         -41.40831   17.17600
  539 Torsion                 37    79   114    68        -164.92341   16.74839
  540 Torsion                 37    79   114    78          76.04738   16.56237
  541 Torsion                 31    53    38    46         174.73045   -0.86829
  542 Torsion                 38    46    95    58          59.21778   -7.19141
  543 Torsion                 52    38    20    72         176.14163   -1.54352
  544 Torsion                 38    52    84   113        -106.52111   -0.77904
  545 Torsion                 38    52    91    42          72.45493  -14.17582
  546 Torsion                 39    50    57    80         103.20291    1.13410
  547 Torsion                 50    39   101    69        -173.16541    0.69862
  548 Torsion                 58    39    21    73         179.34930    0.99476
  549 Torsion                 39    58    95    46          92.90173    5.94670
  550 Torsion                 42    91    52    84         -45.75871  -14.40859
  551 Torsion                 71    86    43   106         178.77736    1.02738
  552 Torsion                 43   106    36    51           7.12472   -4.30914
  553 Torsion                 43   106    36    92        -112.63075   -4.01663
  554 Torsion                 36    97    43   106        -176.07747   -1.02793
  555 Torsion                 44   110    37    79          46.33480   -3.83732
  556 Torsion                 44   110    37    93         -77.86768   -3.99218
  557 Torsion                 37    47    44   110         178.45190   -3.59324
  558 Torsion                 45    59     6    88           1.99528   -1.75442
  559 Torsion                 45    59     6   109        -119.24760   -1.80858
  560 Torsion                 45    62   116    63        -119.56464   -1.30796
  561 Torsion                 45    62   116    89         122.95417   -1.22856
  562 Torsion                 45   107    13   115         115.69998   -1.45521
  563 Torsion                 45   108     9    75         120.05562   -8.54186
  564 Torsion                 45   108     9    98          -1.44446   -8.78100
  565 Torsion                 46    75     9    98         154.74726  -12.57951
  566 Torsion                 46    75     9   108          38.23298  -12.12834
  567 Torsion                 46    95    58    85         -26.14082    5.60805
  568 Torsion                 47    37    29    96        -106.41459   -0.67030
  569 Torsion                 47    37    79   114          72.15425  -15.48196
  570 Torsion                 37    47    93    67         176.17609   -1.12233
  571 Torsion                110    47    44   117         174.66306   -0.93317
  572 Torsion                 49    78   114    54         -98.38064    2.86734
  573 Torsion                 49    78   114    68          23.11357    3.18715
  574 Torsion                 49    78   114    79         144.03171    3.71300
  575 Torsion                 51    36    28    87           0.91702  -12.92262
  576 Torsion                 36    51    92    64        -177.54241    1.74991
  577 Torsion                 51    36   106    86         127.08859   -4.50174
  578 Torsion                 36    51    97   106         176.91780    0.75220
  579 Torsion                110    51    44   117        -178.18141    1.25472
  580 Torsion                 51   110    37    79         170.19231   -3.90615
  581 Torsion                 51   110    37    93          45.98983   -4.06101
  582 Torsion                 37    47    51   110         176.69059    2.82974
  583 Torsion                 52    91    42    74         -41.52718   15.90910
  584 Torsion                 53    46    52    84         160.85682   -4.31389
  585 Torsion                 53    46    52    91          46.40014   -4.23168
  586 Torsion                 46    53    38    52         178.28984   -3.31843
  587 Torsion                 53    46    95    58        -178.33332   -6.96440
  588 Torsion                 14    54    27    40        -179.23554   -0.76758
  589 Torsion                 41    68    54   114         173.27283   -0.42982
  590 Torsion                 55    66    12   104          79.48936    6.04503
  591 Torsion                 12   103    55    66        -178.56484    1.73318
  592 Torsion                 56    88     6    59          37.09938   -0.09330
  593 Torsion                 56    88     6   109         156.15944   -0.18181
  594 Torsion                 57    50    58    85         121.47561   -4.47140
  595 Torsion                 57    50    58    95           6.87658   -3.94563
  596 Torsion                 50    57    39    58        -175.98768   -1.73070
  597 Torsion                 50    57   101    69         178.79977   -0.68551
  598 Torsion                 58    95    46    75         -56.11322   -6.38278
  599 Torsion                 59     6    24    76         128.00562    4.74812
  600 Torsion                 59     6   109    66         -39.16634   10.50144
  601 Torsion                 59    45    62   116         -65.79179    4.68665
  602 Torsion                 61     3    13   107        -129.41506   -4.27075
  603 Torsion                 61     3    13   115         -11.05198   -4.52314
  604 Torsion                 62   116    25    77          37.18150   -0.41165
  605 Torsion                 62   116    89   112         127.87135    4.21011
  606 Torsion                 15    63     4    70         175.94178   -0.86121
  607 Torsion                 63    15    10    83          77.66075    5.82660
  608 Torsion                 10    26    63    15         173.19165   -2.34454
  609 Torsion                 63   116    25    77         156.25539   -0.49550
  610 Torsion                 63   116    89   112           9.42938    4.39936
  611 Torsion                 65     8    42    91         107.43772    3.27019
  612 Torsion                  8    65    74    42        -177.11531   -0.57260
  613 Torsion                  8    65    94    82         177.49349    0.09428
  614 Torsion                 66    65    55   105         178.77098    0.35922
  615 Torsion                 65    66    12   104         -44.48631    5.67656
  616 Torsion                 12   103    65    66        -174.68519    0.20238
  617 Torsion                 66    65     8    74         -93.35544   -2.69858
  618 Torsion                 66    65     8    94         148.10298   -2.25899
  619 Torsion                 66    65     8   111          25.69582   -2.38834
  620 Torsion                 66   109     6    88        -155.56978   11.05287
  621 Torsion                 14    54    68   114         174.13558   -3.77961
  622 Torsion                  8    74    94    82        -179.25057   -0.66868
  623 Torsion                 16     5    74    42         173.27237   -0.34148
  624 Torsion                 74    42    34   100         -98.40092    1.66079
  625 Torsion                 75     9    33    90         -11.14507   -3.51144
  626 Torsion                 75    46    52    84          37.57164   -5.22822
  627 Torsion                 75    46    52    91         -76.88504   -5.14601
  628 Torsion                 46    75    38    52        -174.96505    0.34239
  629 Torsion                 31    53    75    46        -176.40190   -0.17865
  630 Torsion                 76    24     6    88        -116.03358    3.74719
  631 Torsion                 76    24     6   109           9.59241    4.92015
  632 Torsion                 77    25   116    89         -80.72286    0.79665
  633 Torsion                 14    54    78   114         176.06062    0.71408
  634 Torsion                 41    68    78   114        -178.94807    0.17671
  635 Torsion                 79    37    29    96          10.46291   -1.42181
  636 Torsion                 79    37   110   115         -76.90389   -4.84362
  637 Torsion                 37    79    47   110         177.03354    3.39119
  638 Torsion                 37    79    93    67        -179.37404    0.81569
  639 Torsion                 14    54    79   114        -170.66104    2.81506
  640 Torsion                 41    68    79   114        -174.16707    0.26342
  641 Torsion                 80    57    50    83        -139.39428    0.08068
  642 Torsion                 80    57    50   101         -18.45083    0.65110
  643 Torsion                 81     7    10    83         -10.91254    0.80594
  644 Torsion                 10    83     1    60         178.40927   -1.60397
  645 Torsion                 10    83    26    15        -174.80485   -1.89124
  646 Torsion                 83    50    58    85           6.37646   -3.71102
  647 Torsion                 83    50    58    95        -108.22256   -3.18526
  648 Torsion                 50    83    39    58         172.47176   -3.97637
  649 Torsion                 50    83   101    69         174.18134   -0.04177
  650 Torsion                 52    84    20    72        -176.53263    0.42779
  651 Torsion                 84    52    46    95         -75.32053   -4.41656
  652 Torsion                 46    38    84    52         176.96305   -2.69170
  653 Torsion                 58    85    21    73         178.36706   -0.69452
  654 Torsion                 85    58    50   101        -118.55693   -5.15517
  655 Torsion                 50    39    85    58        -171.97807    3.60842
  656 Torsion                 86   106    43   102         -18.22447    4.14204
  657 Torsion                 86   106    36    92           7.33312   -4.20923
  658 Torsion                 36    97    86   106        -176.06977    2.04190
  659 Torsion                 87    28    36    92         122.64919  -12.71413
  660 Torsion                 87    28    36    97        -114.82581  -12.42237
  661 Torsion                 90    33     9    98         114.82966   -2.08609
  662 Torsion                 90    33     9   108        -129.46768   -3.34866
  663 Torsion                 16     5    91    42        -174.16523    0.59536
  664 Torsion                 91    42    34   100         144.01441    2.48690
  665 Torsion                 91    42     8    94        -133.06316    2.69090
  666 Torsion                 91    42     8   111          -7.03783    3.79052
  667 Torsion                  8    74    91    42        -170.79054    2.71921
  668 Torsion                 52    91    20    72        -179.39159    1.23217
  669 Torsion                 91    52    46    95         170.22279   -4.33434
  670 Torsion                 46    38    91    52         177.16355    3.61032
  671 Torsion                 91    52    84   113          10.37571   -1.46198
  672 Torsion                 92    36    51   110        -148.50917    2.03518
  673 Torsion                 36    92    97   106         175.27039   -1.36519
  674 Torsion                 93    37    29    96         131.49536   -0.87067
  675 Torsion                 93    37   110   115         158.89363   -4.99848
  676 Torsion                 37    93    47   110        -174.53985   -0.62515
  677 Torsion                 93    37    79   114        -165.81444  -15.54360
  678 Torsion                  8    94    74    42        -173.37779    3.10614
  679 Torsion                 46    95    38    52         176.80071    2.97975
  680 Torsion                 31    53    95    46        -178.16920    1.08655
  681 Torsion                 58    95    21    73        -177.57305   -0.29641
  682 Torsion                 95    58    50   101         126.84404   -4.62940
  683 Torsion                 50    39    95    58         176.80240    2.06866
  684 Torsion                 97    36    51   110          92.93379    2.43399
  685 Torsion                 36    97    92    64         179.33596   -1.50157
  686 Torsion                 97   106    43   102         103.42683    4.57314
  687 Torsion                 71    86    97   106        -173.17009    0.16190
  688 Torsion                 99    23    13   107         -34.64616    2.98884
  689 Torsion                 99    23    13   115        -153.86127    2.98327
  690 Torsion                 50   101    39    58        -176.13375    5.96663
  691 Torsion                103    12    35   106         -74.14793   11.25544
  692 Torsion                 12   103   104    48        -175.87008    1.27647
  693 Torsion                 66   103    55   105        -174.80828    0.60991
  694 Torsion                104    12    35   106         163.19506   10.72444
  695 Torsion                104    12    66   109        -157.06374    6.97258
  696 Torsion                 12   104   103    66         171.90473   -1.87394
  697 Torsion                107    13   115   110          39.52486  -11.23244
  698 Torsion                107    45    62   116         173.48138    4.53894
  699 Torsion                108    45    62   116          54.86035    4.82778
  700 Torsion                 66   109    55   105         175.92223   -0.94322
  701 Torsion                 12   103   109    66         173.11207   -1.98128
  702 Torsion                  8   111    74    42         170.28241   -2.65725
  703 Torsion                  8   111    94    82        -178.39711    0.54949
  704 Torsion                110   115    44   117        -176.31970   -0.27025
  705 Torsion                 37    47   115   110        -175.01542    0.76957



                                NWChem Input Module
                                -------------------




                                     CITATION
                                     --------
                Please cite the following reference when publishing
                           results obtained with NWChem:

          E. Apra, E. J. Bylaska, W. A. de Jong, N. Govind, K. Kowalski,
       T. P. Straatsma, M. Valiev, H. J. J. van Dam, Y. Alexeev, J. Anchell,
       V. Anisimov, F. W. Aquino, R. Atta-Fynn, J. Autschbach, N. P. Bauman,
     J. C. Becca, D. E. Bernholdt, K. Bhaskaran-Nair, S. Bogatko, P. Borowski,
         J. Boschen, J. Brabec, A. Bruner, E. Cauet, Y. Chen, G. N. Chuev,
      C. J. Cramer, J. Daily, M. J. O. Deegan, T. H. Dunning Jr., M. Dupuis,
   K. G. Dyall, G. I. Fann, S. A. Fischer, A. Fonari, H. Fruchtl, L. Gagliardi,
      J. Garza, N. Gawande, S. Ghosh, K. Glaesemann, A. W. Gotz, J. Hammond,
       V. Helms, E. D. Hermes, K. Hirao, S. Hirata, M. Jacquelin, L. Jensen,
   B. G. Johnson, H. Jonsson, R. A. Kendall, M. Klemm, R. Kobayashi, V. Konkov,
      S. Krishnamoorthy, M. Krishnan, Z. Lin, R. D. Lins, R. J. Littlefield,
      A. J. Logsdail, K. Lopata, W. Ma, A. V. Marenich, J. Martin del Campo,
   D. Mejia-Rodriguez, J. E. Moore, J. M. Mullin, T. Nakajima, D. R. Nascimento,
    J. A. Nichols, P. J. Nichols, J. Nieplocha, A. Otero-de-la-Roza, B. Palmer,
    A. Panyala, T. Pirojsirikul, B. Peng, R. Peverati, J. Pittner, L. Pollack,
   R. M. Richard, P. Sadayappan, G. C. Schatz, W. A. Shelton, D. W. Silverstein,
   D. M. A. Smith, T. A. Soares, D. Song, M. Swart, H. L. Taylor, G. S. Thomas,
            V. Tipparaju, D. G. Truhlar, K. Tsemekhman, T. Van Voorhis,
      A. Vazquez-Mayagoitia, P. Verma, O. Villa, A. Vishnu, K. D. Vogiatzis,
        D. Wang, J. H. Weare, M. J. Williamson, T. L. Windus, K. Wolinski,
        A. T. Wong, Q. Wu, C. Yang, Q. Yu, M. Zacharias, Z. Zhang, Y. Zhao,
                                and R. J. Harrison
                        "NWChem: Past, present, and future
                         J. Chem. Phys. 152, 184102 (2020)
                               doi:10.1063/5.0004997

                                      AUTHORS
                                      -------
  E. Apra, E. J. Bylaska, N. Govind, K. Kowalski, M. Valiev, D. Mejia-Rodriguez,
       A. Kunitsa, N. P. Bauman, A. Panyala, W. A. de Jong, T. P. Straatsma,
   H. J. J. van Dam, D. Wang, T. L. Windus, J. Hammond, J. Autschbach, A. Woods,
    K. Bhaskaran-Nair, J. Brabec, K. Lopata, S. A. Fischer, S. Krishnamoorthy,
     M. Jacquelin, W. Ma, M. Klemm, O. Villa, Y. Chen, V. Anisimov, F. Aquino,
     S. Hirata, M. T. Hackler, E. Hermes, L. Jensen, J. E. Moore, J. C. Becca,
      V. Konjkov, T. Risthaus, M. Malagoli, A. Marenich, A. Otero-de-la-Roza,
        J. Mullin, P. Nichols, R. Peverati, J. Pittner, Y. Zhao, P.-D. Fan,
        A. Fonari, M. J. Williamson, R. J. Harrison, J. R. Rehr, M. Dupuis,
     D. Silverstein, D. M. A. Smith, J. Nieplocha, V. Tipparaju, M. Krishnan,
     B. E. Van Kuiken, A. Vazquez-Mayagoitia, M. Swart, Q. Wu, T. Van Voorhis,
     A. A. Auer, M. Nooijen, L. D. Crosby, E. Brown, G. Cisneros, G. I. Fann,
   H. Fruchtl, J. Garza, K. Hirao, R. A. Kendall, J. A. Nichols, K. Tsemekhman,
    K. Wolinski, J. Anchell, D. E. Bernholdt, P. Borowski, T. Clark, D. Clerc,
   H. Dachsel, M. J. O. Deegan, K. Dyall, D. Elwood, E. Glendening, M. Gutowski,
   A. C. Hess, J. Jaffe, B. G. Johnson, J. Ju, R. Kobayashi, R. Kutteh, Z. Lin,
   R. Littlefield, X. Long, B. Meng, T. Nakajima, S. Niu, L. Pollack, M. Rosing,
   K. Glaesemann, G. Sandrone, M. Stave, H. Taylor, G. Thomas, J. H. van Lenthe,
                               A. T. Wong, Z. Zhang.

 Total times  cpu:     7817.9s     wall:     8080.1s
