 argument  1 = /lustre/ukt/milias/work/projects/open-collection/theoretical_chemistry/projects/adsorbate_on_surface/on_quartz/quartz/nwchem/Quartz-G_molecular_slab_117atoms/Bi_on_quartz/ecp/BiQ.geopt_crenbl_ecp_revpbe-d3bj_odft_restart.nw



============================== echo of input deck ==============================
echo

restart BionQ

permanent_dir /lustre/ukt/milias/scratch/Bi-odft_on_quartz

driver
  maxiter 999
  xyz BiQgeo
end

task dft optimize

#task dft frequencies
================================================================================


                                         
                                         


             Northwest Computational Chemistry Package (NWChem) 7.2.0
             --------------------------------------------------------


                    Environmental Molecular Sciences Laboratory
                       Pacific Northwest National Laboratory
                                Richland, WA 99352

                              Copyright (c) 1994-2022
                       Pacific Northwest National Laboratory
                            Battelle Memorial Institute

             NWChem is an open-source computational chemistry package
                        distributed under the terms of the
                      Educational Community License (ECL) 2.0
             A copy of the license is included with this distribution
                              in the LICENSE.TXT file

                                  ACKNOWLEDGMENT
                                  --------------

            This software and its documentation were developed at the
            EMSL at Pacific Northwest National Laboratory, a multiprogram
            national laboratory, operated for the U.S. Department of Energy
            by Battelle under Contract Number DE-AC05-76RL01830. Support
            for this work was provided by the Department of Energy Office
            of Biological and Environmental Research, Office of Basic
            Energy Sciences, and the Office of Advanced Scientific Computing.


           Job information
           ---------------

    hostname        = lxbk1136
    program         = /lustre/ukt/milias/work/software/nwchem/nwchem-7.2.0_gnu_openmpi_openblas/bin/LINUX64/nwchem
    date            = Thu Aug 31 01:32:22 2023

    compiled        = Sun_Jul_02_11:55:06_2023
    source          = /lustre/ukt/milias/work/software/nwchem/nwchem-7.2.0_gnu_openmpi_openblas
    nwchem branch   = 7.2.0
    nwchem revision = v7.2.0-beta1-192-gd0d141fdfb
    ga revision     = 5.8.0
    use scalapack   = F
    input           = /lustre/ukt/milias/work/projects/open-collection/theoretical_chemistry/projects/adsorbate_on_surface/on_quartz/quartz/nwchem/Quartz-G_molecular_slab_117atoms/Bi_on_quartz/ecp/BiQ.geopt_crenbl_ecp_revpbe-d3bj_odft_restart.nw
    prefix          = BionQ.
    data base       = /lustre/ukt/milias/scratch/Bi-odft_on_quartz/BionQ.db
    status          = restart
    nproc           =      140
    time left       =     -1s



           Memory information
           ------------------

    heap     =   26214396 doubles =    200.0 Mbytes
    stack    =   26214401 doubles =    200.0 Mbytes
    global   =   52428800 doubles =    400.0 Mbytes (distinct from heap & stack)
    total    =  104857597 doubles =    800.0 Mbytes
    verify   = yes
    hardfail = no 


           Directory information
           ---------------------

  0 permanent = /lustre/ukt/milias/scratch/Bi-odft_on_quartz
  0 scratch   = .


           Previous task information
           -------------------------

    Theory    = dft                             
    Operation = optimize                      
    Status    = ok                            
    Qmmm      = F
    Ignore    = F


           Geometries in the database
           --------------------------

       Name                              Natoms  Last Modified
       --------------------------------  ------  ------------------------
    1  driverinitial                        118  Thu Aug 31 01:07:44 2023  
    2  geometry                             118  Thu Aug 31 01:30:30 2023  

  The geometry named "geometry" is the default for restart



           Basis sets in the database
           --------------------------

       Name                              Natoms  Last Modified
        --------------------------------  ------  ------------------------
    1  ao basis                               0  Wed Aug 30 22:52:17 2023  
    2  ecp basis                              2  Wed Aug 30 22:52:17 2023  

  The basis set named "ao basis" is the default AO basis for restart




                                NWChem Input Module
                                -------------------




                           NWChem Geometry Optimization
                           ----------------------------




                                   Bi@Quartz ecp


  no constraints, skipping    0.0000000000000000     
 maximum gradient threshold         (gmax) =   0.000450
 rms gradient threshold             (grms) =   0.000300
 maximum cartesian step threshold   (xmax) =   0.001800
 rms cartesian step threshold       (xrms) =   0.001200
 fixed trust radius                (trust) =   0.300000
 maximum step size to saddle      (sadstp) =   0.100000
 energy precision                  (eprec) =   5.0D-06
 maximum number of steps          (nptopt) =  999
 initial hessian option           (inhess) =    0
 line search option               (linopt) =    1
 hessian update option            (modupd) =    1
 saddle point option              (modsad) =    0
 initial eigen-mode to follow     (moddir) =    0
 initial variable to follow       (vardir) =    0
 follow first negative mode     (firstneg) =    T
 apply conjugacy                    (opcg) =    F
 source of zmatrix                         =   autoz   


          -------------------
          Energy Minimization
          -------------------


 Names of Z-matrix variables 
    1              2              3              4              5         
    6              7              8              9             10         
   11             12             13             14             15         
   16             17             18             19             20         
   21             22             23             24             25         
   26             27             28             29             30         
   31             32             33             34             35         
   36             37             38             39             40         
   41             42             43             44             45         
   46             47             48             49             50         
   51             52             53             54             55         
   56             57             58             59             60         
   61             62             63             64             65         
   66             67             68             69             70         
   71             72             73             74             75         
   76             77             78             79             80         
   81             82             83             84             85         
   86             87             88             89             90         
   91             92             93             94             95         
   96             97             98             99            100         
  101            102            103            104            105         
  106            107            108            109            110         
  111            112            113            114            115         
  116            117            118            119            120         
  121            122            123            124            125         
  126            127            128            129            130         
  131            132            133            134            135         
  136            137            138            139            140         
  141            142            143            144            145         
  146            147            148            149            150         
  151            152            153            154            155         
  156            157            158            159            160         
  161            162            163            164            165         
  166            167            168            169            170         
  171            172            173            174            175         
  176            177            178            179            180         
  181            182            183            184            185         
  186            187            188            189            190         
  191            192            193            194            195         
  196            197            198            199            200         
  201            202            203            204            205         
  206            207            208            209            210         
  211            212            213            214            215         
  216            217            218            219            220         
  221            222            223            224            225         
  226            227            228            229            230         
  231            232            233            234            235         
  236            237            238            239            240         
  241            242            243            244            245         
  246            247            248            249            250         
  251            252            253            254            255         
  256            257            258            259            260         
  261            262            263            264            265         
  266            267            268            269            270         
  271            272            273            274            275         
  276            277            278            279            280         
  281            282            283            284            285         
  286            287            288            289            290         
  291            292            293            294            295         
  296            297            298            299            300         
  301            302            303            304            305         
  306            307            308            309            310         
  311            312            313            314            315         
  316            317            318            319            320         
  321            322            323            324            325         
  326            327            328            329            330         
  331            332            333            334            335         
  336            337            338            339            340         
  341            342            343            344            345         
  346            347            348            349            350         
  351            352            353            354            355         
  356            357            358            359            360         
  361            362            363            364            365         
  366            367            368            369            370         
  371            372            373            374            375         
  376            377            378            379            380         
  381            382            383            384            385         
  386            387            388            389            390         
  391            392            393            394            395         
  396            397            398            399            400         
  401            402            403            404            405         
  406            407            408            409            410         
  411            412            413            414            415         
  416            417            418            419            420         
  421            422            423            424            425         
  426            427            428            429            430         
  431            432            433            434            435         
  436            437            438            439            440         
  441            442            443            444            445         
  446            447            448            449            450         
  451            452            453            454            455         
  456            457            458            459            460         
  461            462            463            464            465         
  466            467            468            469            470         
  471            472            473            474            475         
  476            477            478            479            480         
  481            482            483            484            485         
  486            487            488            489            490         
  491            492            493            494            495         
  496            497            498            499            500         
  501            502            503            504            505         
  506            507            508            509            510         
  511            512            513            514            515         
  516            517            518            519            520         
  521            522            523            524            525         
  526            527            528            529            530         
  531            532            533            534            535         
  536            537            538            539            540         
  541            542            543            544            545         
  546            547            548            549            550         
  551            552            553            554            555         
  556            557            558            559            560         
  561            562            563            564            565         
  566            567            568            569            570         
  571            572            573            574            575         
  576            577            578            579            580         
  581            582            583            584            585         
  586            587            588            589            590         
  591            592            593            594            595         
  596            597            598            599            600         
  601            602            603            604            605         
  606            607            608            609            610         
  611            612            613            614            615         
  616            617            618            619            620         
  621            622            623            624            625         
  626            627            628            629            630         
  631            632            633            634            635         
  636            637            638            639            640         
  641            642            643            644            645         
  646            647            648            649            650         
  651            652            653            654            655         
  656            657            658            659            660         
  661            662            663            664            665         
  666            667            668            669            670         
  671            672            673            674            675         
  676            677            678            679            680         
  681            682            683            684            685         
  686            687            688            689            690         
  691            692            693            694            695         
  696            697            698            699            700         
  701            702            703            704            705         

 Variables with the same non-blank name are constrained to be equal


 Using old Hessian from previous optimization

          --------
          Step   0
          --------

                                 NWChem DFT Module
                                 -----------------


                                   Bi@Quartz ecp



  Caching 1-el integrals 
   Time after variat. SCF:      8.4
   Time prior to 1st pass:      8.4

           Memory utilization after 1st SCF pass: 
           Heap Space remaining (MW):       26.02            26016028
          Stack Space remaining (MW):       26.17            26173460

   convergence    iter        energy       DeltaE   RMS-Dens  Diis-err    time
 ---------------- ----- ----------------- --------- --------- ---------  ------
 d= 0,ls=0.0,diis     1  -3877.3431847688 -1.97D+04  9.29D-06  4.39D-06    24.4
                                                     9.09D-06  4.30D-06
 d= 0,ls=0.0,diis     2  -3877.3431274187  5.74D-05  4.64D-06  4.39D-06    31.4
                                                     4.54D-06  4.30D-06
 d= 0,ls=0.0,diis     3  -3877.3431289150 -1.50D-06  5.78D-07  1.10D-06    38.4
                                                     5.65D-07  1.08D-06
 d= 0,ls=0.0,diis     4  -3877.3431290314 -1.16D-07  9.85D-07  8.42D-07    45.6
                                                     9.64D-07  8.24D-07


         Total DFT energy =    -3877.343129031418
      One electron energy =   -37249.859488892733
           Coulomb energy =    18001.841711240158
    Exchange-Corr. energy =     -475.398241339858
 Nuclear repulsion energy =    15846.503400389200

    Dispersion correction =       -0.430510428184

 Numeric. integr. density =      615.000415226210

     Total iterative time =     37.3s



     --------------------------
     Expectation value of S2:  
     --------------------------
      <S2> =      3.7515 (Exact =     3.7500)



                         DFT ENERGY GRADIENTS

    atom               coordinates                        gradient
                 x          y          z           x          y          z
   1 O      -8.645789   4.941284  -6.466096   -0.000006   0.000002  -0.000002
   2 H       2.188787  -8.142927  -2.161370    0.000005   0.000002  -0.000007
   3 O       3.876334   3.421227  -5.059446    0.000010   0.000008   0.000025
   4 O     -11.668295   4.966665   2.400846    0.000018   0.000009   0.000005
   5 O       2.914364 -13.573137   7.997453    0.000002  -0.000009   0.000003
   6 Si      4.564259  -1.816455   4.852599   -0.000031  -0.000020   0.000032
   7 O      -4.876322   1.878818  -4.688436    0.000006   0.000011   0.000013
   8 Si      5.301131 -10.118691   1.099006    0.000009  -0.000001  -0.000006
   9 Si     -1.858964  -4.545405  -2.847197    0.000023   0.000059  -0.000014
  10 Si     -7.913686   2.753885  -4.361128    0.000003   0.000003  -0.000000
  11 H       2.490504  -4.476543  -4.615125    0.000012   0.000006   0.000007
  12 Si      7.859640  -2.786626  -4.436440    0.000003   0.000018   0.000018
  13 Si      1.825385   4.523845  -2.923736   -0.000025   0.000036   0.000051
  14 Si     -5.276406  10.145142   1.059651    0.000004  -0.000004   0.000033
  15 Si     -8.692486   4.972274   1.459113    0.000001   0.000020   0.000064
  16 H       2.848565 -15.286601   8.552469   -0.000002   0.000004  -0.000001
  17 H      -2.208058   8.132241  -2.219474    0.000001   0.000005  -0.000003
  18 H      -8.094425  -2.155481   4.190703    0.000003  -0.000001  -0.000006
  19 O       4.818212  -1.915673  -4.734456    0.000023  -0.000017  -0.000029
  20 O      -4.890845  -8.622963   8.572203    0.000009   0.000002  -0.000004
  21 O     -12.779317  -6.608838   1.892596    0.000003   0.000003  -0.000001
  22 O      -7.420065   7.846592   1.415486   -0.000005  -0.000003  -0.000085
  23 O      -0.966690   5.285684  -4.152512   -0.000000   0.000009  -0.000017
  24 O       3.483109  -3.853876   7.011748    0.000026   0.000018   0.000014
  25 O      -5.270900  -0.894872   6.136847    0.000001   0.000007   0.000002
  26 O      -8.423351   3.820793  -1.460577   -0.000012  -0.000005  -0.000004
  27 O      -6.629120  12.817715   0.137840    0.000001  -0.000005   0.000000
  28 O       9.117547   3.194593   2.847674   -0.000003   0.000007   0.000003
  29 O       1.963463   4.881926   6.775310   -0.000008  -0.000000   0.000008
  30 H       3.918115  -0.314647  -4.841581    0.000001   0.000009   0.000031
  31 H      -4.792181 -13.411841  -0.717415    0.000000  -0.000020  -0.000009
  32 O      -3.191685   9.107765  -1.017647    0.000011  -0.000012  -0.000002
  33 O      -3.935209  -3.457153  -4.966232    0.000020  -0.000028  -0.000008
  34 O       4.635261  -8.792985   8.766426   -0.000015   0.000001  -0.000019
  35 O       9.487520  -0.128838  -4.899776   -0.000020  -0.000001  -0.000019
  36 Si     10.118495   5.296019   0.769146   -0.000002   0.000003   0.000029
  37 Si      2.802375   7.917155   6.361171    0.000001   0.000005  -0.000020
  38 O      -3.778581  -8.341764   3.573177   -0.000006   0.000004   0.000007
  39 O     -10.527258  -4.011155  -1.915431   -0.000004  -0.000005  -0.000001
  40 H      -7.406499  14.337596  -0.435382    0.000005   0.000001   0.000002
  41 H      -2.729753  15.390562   8.425673    0.000001  -0.000004   0.000000
  42 Si      2.863816 -10.651748   6.873774    0.000014   0.000012   0.000002
  43 O       8.774011   4.487314  -6.914807    0.000007  -0.000027  -0.000007
  44 O       4.897509  11.691923  -0.390289    0.000005  -0.000007   0.000009
  45 Si      0.009439   0.010951   0.990328    0.000002   0.000099   0.000039
  46 Si     -4.923416  -8.688985   0.659336    0.000032   0.000001   0.000009
  47 O       3.829681   8.387205   3.438280   -0.000005  -0.000003   0.000006
  48 H       8.904498  -6.310590  -7.712927   -0.000004   0.000001   0.000000
  49 H      -5.803989   8.587280   9.961375   -0.000018  -0.000005   0.000009
  50 Si    -10.707907  -2.823244  -4.806742    0.000008  -0.000016  -0.000005
  51 O       7.811695   7.440052   0.474916   -0.000013  -0.000027  -0.000062
  52 Si     -2.711596  -7.837031   6.475973   -0.000005  -0.000009   0.000002
  53 O      -4.902939 -11.688591  -0.202730   -0.000001   0.000019   0.000016
  54 O      -3.962048  10.579598   3.907831   -0.000002   0.000006   0.000001
  55 O      11.705999  -4.920924   2.296943   -0.000004  -0.000002  -0.000010
  56 H       4.532901   2.547052   6.593997   -0.000001   0.000007   0.000005
  57 O      -8.853223  -4.543416  -6.751550   -0.000014   0.000026   0.000013
  58 Si    -10.101884  -5.274732   0.957613    0.000007  -0.000001  -0.000005
  59 O       2.234471  -1.190089   2.834531    0.000042   0.000013  -0.000043
  60 H      -9.000401   6.240537  -7.663851    0.000004   0.000000  -0.000003
  61 H       5.464321   3.661946  -5.960511   -0.000012   0.000004  -0.000015
  62 O      -2.190023   1.241075   2.846074   -0.000069  -0.000004  -0.000082
  63 O      -6.877357   3.245861   3.378179    0.000000  -0.000038  -0.000039
  64 H      14.335418   7.419606   2.203726   -0.000004  -0.000007  -0.000003
  65 O       7.446589  -7.814573   1.404282   -0.000007   0.000004  -0.000002
  66 Si      8.717151  -4.939096   1.397610   -0.000003  -0.000013   0.000015
  67 H       6.327089   9.138955   9.577224   -0.000002  -0.000001  -0.000002
  68 O      -2.802797  13.671289   7.889860    0.000001   0.000008  -0.000001
  69 H     -15.362910  -2.842767  -6.427204    0.000007   0.000001   0.000003
  70 H     -13.380990   4.862262   2.950726   -0.000014  -0.000003   0.000004
  71 H      15.284924   2.780436  -6.655238    0.000005  -0.000003  -0.000002
  72 H      -6.193031  -9.018798   9.753525   -0.000006   0.000002   0.000002
  73 H     -14.302211  -7.376306   2.471161   -0.000007   0.000000  -0.000001
  74 O       4.023069 -10.524759   3.967812   -0.000002  -0.000009   0.000000
  75 O      -3.200635  -6.916891  -1.303502   -0.000055   0.000000  -0.000042
  76 H       3.727083  -5.449696   7.894563   -0.000009  -0.000012  -0.000007
  77 H      -4.435628  -2.462663   6.670475    0.000001  -0.000008  -0.000002
  78 O      -4.516027   8.900474   8.731840    0.000026   0.000012  -0.000008
  79 O       0.134099   9.545236   6.767179    0.000004  -0.000010   0.000017
  80 H      -8.547816  -5.780825  -8.034342    0.000006  -0.000016  -0.000013
  81 H      -3.978208   0.276191  -4.792217    0.000004  -0.000010  -0.000013
  82 H       7.416519 -14.324341  -0.379682   -0.000002  -0.000006   0.000001
  83 O      -9.547431   0.091318  -4.773957   -0.000001   0.000005   0.000012
  84 O      -1.866878  -4.797242   6.842689   -0.000007  -0.000008  -0.000013
  85 O      -9.071143  -3.150956   2.998558   -0.000003   0.000007   0.000011
  86 O      13.570974   2.841460  -6.100923   -0.000004  -0.000002   0.000002
  87 H       8.158077   2.212461   4.064604    0.000001  -0.000004  -0.000002
  88 O       5.360916   0.974378   6.063779    0.000001  -0.000000  -0.000011
  89 O      -3.384654   3.942880   7.015535   -0.000030  -0.000012   0.000038
  90 H      -5.534789  -3.707551  -5.844163   -0.000012   0.000007   0.000001
  91 O      -0.038094  -9.460557   6.865615   -0.000002   0.000001  -0.000001
  92 O      12.806077   6.643995   1.653794    0.000006   0.000006   0.000005
  93 O       5.009599   8.728383   8.418128    0.000005   0.000001   0.000004
  94 O       6.644945 -12.799240   0.187519   -0.000004   0.000009   0.000001
  95 O      -7.801866  -7.425187   0.657288   -0.000003   0.000004   0.000003
  96 H       0.379216   3.959638   6.931699   -0.000000  -0.000003  -0.000001
  97 O      10.507788   4.000854  -2.094944    0.000013   0.000002  -0.000001
  98 O       0.916733  -5.317167  -4.106530   -0.000017   0.000001  -0.000020
  99 H      -2.547831   4.440242  -4.629405   -0.000013  -0.000002   0.000013
 100 H       5.936700  -8.467552   9.978456    0.000004  -0.000004   0.000014
 101 O     -13.642006  -2.895791  -5.894071   -0.000009   0.000001  -0.000001
 102 H       8.453694   5.713919  -8.204291   -0.000003   0.000019  -0.000000
 103 O       8.406525  -3.820666  -1.530754   -0.000003   0.000006   0.000003
 104 O       8.565162  -4.997804  -6.525554    0.000003  -0.000011   0.000000
 105 H      13.425948  -4.809184   2.822143    0.000005   0.000001   0.000005
 106 Si     10.650582   2.783883  -4.976362   -0.000003   0.000012   0.000014
 107 O       1.208848   2.205882  -0.890795    0.000008  -0.000080  -0.000082
 108 O      -1.215827  -2.214277  -0.837896    0.000011  -0.000103   0.000109
 109 O       6.927819  -3.192602   3.322658    0.000005   0.000013  -0.000014
 110 Si      4.932689   8.702095   0.504750   -0.000003   0.000012   0.000033
 111 O       3.189164  -9.104749  -0.962353   -0.000012  -0.000002   0.000008
 112 H      -3.616841   5.547828   7.884742    0.000023   0.000011  -0.000024
 113 H      -0.280447  -3.874049   6.969714    0.000004   0.000008   0.000008
 114 Si     -2.767120  10.737731   6.797790   -0.000012  -0.000016  -0.000007
 115 O       3.183652   6.907585  -1.413927    0.000029  -0.000005  -0.000024
 116 Si     -4.492883   1.885291   4.889505    0.000040   0.000023   0.000050
 117 H       4.776845  13.409200  -0.922340   -0.000004   0.000007  -0.000004
 118 Bi     -0.061308  -0.048592 -10.130804    0.000007   0.000001  -0.000007

  no constraints, skipping    0.0000000000000000     

@ Step       Energy      Delta E   Gmax     Grms     Xrms     Xmax   Walltime
@ ---- ---------------- -------- -------- -------- -------- -------- --------
@    0   -3877.34312903  0.0D+00  0.00003  0.00001  0.00000  0.00000     87.8
                                     ok       ok       ok       ok  

  no constraints, skipping    0.0000000000000000     
  no constraints, skipping    0.0000000000000000     
  no constraints, skipping    0.0000000000000000     

                                 NWChem DFT Module
                                 -----------------


                                   Bi@Quartz ecp



  Caching 1-el integrals 
   Time after variat. SCF:     98.3
   Time prior to 1st pass:     98.3

           Memory utilization after 1st SCF pass: 
           Heap Space remaining (MW):       26.02            26016028
          Stack Space remaining (MW):       26.17            26173460

   convergence    iter        energy       DeltaE   RMS-Dens  Diis-err    time
 ---------------- ----- ----------------- --------- --------- ---------  ------
 d= 0,ls=0.0,diis     1  -3877.3431876939 -1.97D+04  6.26D-06  6.60D-06   117.3
                                                     6.13D-06  6.55D-06
 d= 0,ls=0.0,diis     2  -3877.3431296624  5.80D-05  5.26D-06  4.41D-06   124.0
                                                     5.14D-06  4.32D-06
 d= 0,ls=0.0,diis     3  -3877.3431312846 -1.62D-06  3.74D-06  8.40D-07   131.1
                                                     3.66D-06  8.23D-07
 d= 0,ls=0.0,diis     4  -3877.3431315570 -2.72D-07  3.42D-07  3.25D-07   137.9
                                                     3.36D-07  3.25D-07


         Total DFT energy =    -3877.343131556998
      One electron energy =   -37249.753144587448
           Coulomb energy =    18001.788024624228
    Exchange-Corr. energy =     -475.398255052381
 Nuclear repulsion energy =    15846.450746887607

    Dispersion correction =       -0.430503429006

 Numeric. integr. density =      615.000427740141

     Total iterative time =     39.6s



     --------------------------
     Expectation value of S2:  
     --------------------------
      <S2> =      3.7515 (Exact =     3.7500)

 Line search: 
     step= 1.00 grad=-2.9D-07 hess=-2.2D-06 energy=  -3877.343132 mode=accept  
 new step= 1.00                   predicted energy=  -3877.343132
  no constraints, skipping    0.0000000000000000     
  no constraints, skipping    0.0000000000000000     
  no constraints, skipping    0.0000000000000000     

          --------
          Step   1
          --------

                                 NWChem DFT Module
                                 -----------------


                                   Bi@Quartz ecp




  The DFT is already converged 

         Total DFT energy =  -3877.343131556998



                         DFT ENERGY GRADIENTS

    atom               coordinates                        gradient
                 x          y          z           x          y          z
   1 O      -8.644455   4.941401  -6.466058   -0.000001  -0.000002   0.000004
   2 H       2.188688  -8.143322  -2.161611    0.000002   0.000006  -0.000008
   3 O       3.876687   3.421014  -5.059396    0.000013   0.000002   0.000021
   4 O     -11.668192   4.965437   2.400450    0.000008   0.000008   0.000009
   5 O       2.914177 -13.573385   7.996933    0.000000  -0.000006   0.000001
   6 Si      4.564222  -1.816757   4.852775   -0.000032  -0.000007   0.000027
   7 O      -4.875571   1.878212  -4.688570    0.000025  -0.000010   0.000016
   8 Si      5.301188 -10.119014   1.098694    0.000013   0.000002  -0.000006
   9 Si     -1.859098  -4.545042  -2.847232    0.000022   0.000054  -0.000034
  10 Si     -7.912751   2.753775  -4.361192    0.000001   0.000007   0.000001
  11 H       2.490255  -4.477470  -4.615249    0.000008  -0.000006   0.000003
  12 Si      7.859326  -2.786780  -4.436325    0.000010   0.000003   0.000002
  13 Si      1.825878   4.523984  -2.923733   -0.000028   0.000036   0.000050
  14 Si     -5.277062  10.145255   1.059518    0.000006  -0.000008   0.000032
  15 Si     -8.692285   4.971925   1.459061   -0.000011   0.000015   0.000062
  16 H       2.848629 -15.286890   8.551870   -0.000000   0.000001  -0.000001
  17 H      -2.208734   8.132708  -2.219896    0.000002   0.000000  -0.000006
  18 H      -8.094442  -2.155308   4.191142    0.000002   0.000001  -0.000016
  19 O       4.817938  -1.915635  -4.734112    0.000008  -0.000000  -0.000000
  20 O      -4.891032  -8.623522   8.572336    0.000005   0.000003   0.000000
  21 O     -12.779644  -6.608574   1.892774   -0.000004   0.000003   0.000003
  22 O      -7.420535   7.846566   1.415619   -0.000004   0.000006  -0.000082
  23 O      -0.966071   5.285874  -4.152701    0.000004  -0.000011  -0.000026
  24 O       3.482614  -3.854195   7.011713    0.000023  -0.000006   0.000017
  25 O      -5.270662  -0.894725   6.137188    0.000010   0.000005   0.000010
  26 O      -8.422448   3.820570  -1.460613   -0.000007  -0.000008  -0.000007
  27 O      -6.630158  12.817850   0.138304   -0.000006   0.000011  -0.000003
  28 O       9.117299   3.195479   2.848406    0.000002   0.000020   0.000007
  29 O       1.964018   4.882141   6.774966   -0.000010  -0.000008   0.000013
  30 H       3.917605  -0.314805  -4.842074   -0.000007  -0.000002   0.000016
  31 H      -4.791983 -13.411099  -0.718298   -0.000001   0.000002  -0.000005
  32 O      -3.192737   9.108151  -1.018304   -0.000004   0.000001   0.000004
  33 O      -3.935318  -3.456598  -4.966237   -0.000006  -0.000018  -0.000017
  34 O       4.635379  -8.793306   8.765899    0.000000   0.000006  -0.000012
  35 O       9.487563  -0.129150  -4.899558   -0.000014   0.000000  -0.000018
  36 Si     10.118576   5.296315   0.769436    0.000007   0.000004   0.000033
  37 Si      2.802645   7.917490   6.360958    0.000005   0.000014  -0.000022
  38 O      -3.778950  -8.341790   3.573318   -0.000007  -0.000000   0.000000
  39 O     -10.527425  -4.010449  -1.914836   -0.000002  -0.000006  -0.000004
  40 H      -7.408105  14.337650  -0.434329    0.000006  -0.000005   0.000007
  41 H      -2.730156  15.390643   8.425114   -0.000001   0.000001   0.000002
  42 Si      2.863652 -10.651945   6.873375    0.000012   0.000008  -0.000006
  43 O       8.773909   4.487078  -6.914274   -0.000003  -0.000026  -0.000017
  44 O       4.897476  11.692365  -0.390557    0.000002   0.000002   0.000008
  45 Si      0.009760   0.011133   0.990329   -0.000000   0.000087   0.000053
  46 Si     -4.923707  -8.688565   0.659417    0.000030   0.000009   0.000021
  47 O       3.829982   8.387668   3.438081   -0.000007  -0.000002   0.000002
  48 H       8.904273  -6.310868  -7.712678    0.000000  -0.000006  -0.000005
  49 H      -5.804185   8.587608   9.960935   -0.000004  -0.000001  -0.000004
  50 Si    -10.707824  -2.822935  -4.806315    0.000007  -0.000009   0.000005
  51 O       7.812073   7.440639   0.474672   -0.000016  -0.000025  -0.000075
  52 Si     -2.711849  -7.837287   6.476139    0.000002  -0.000017  -0.000002
  53 O      -4.902987 -11.688044  -0.203138    0.000001  -0.000006   0.000012
  54 O      -3.962089  10.579520   3.907458    0.000003   0.000006   0.000006
  55 O      11.705928  -4.921019   2.297012    0.000004  -0.000002  -0.000006
  56 H       4.533187   2.546805   6.593956   -0.000001   0.000008  -0.000005
  57 O      -8.853234  -4.543752  -6.750727   -0.000004   0.000002  -0.000004
  58 Si    -10.102149  -5.274429   0.958046    0.000005  -0.000005  -0.000002
  59 O       2.234683  -1.190041   2.834553    0.000041   0.000020  -0.000038
  60 H      -8.998947   6.240772  -7.663732    0.000002   0.000003  -0.000007
  61 H       5.464798   3.661648  -5.960317   -0.000009   0.000005  -0.000014
  62 O      -2.189775   1.240928   2.846195   -0.000066   0.000000  -0.000078
  63 O      -6.876996   3.245881   3.378309   -0.000000  -0.000034  -0.000045
  64 H      14.335815   7.419627   2.203507    0.000000  -0.000005  -0.000003
  65 O       7.446565  -7.814865   1.404231   -0.000010  -0.000000   0.000008
  66 Si      8.717085  -4.939353   1.397660    0.000004   0.000002   0.000002
  67 H       6.327126   9.140260   9.576915    0.000005   0.000005   0.000003
  68 O      -2.802852  13.671339   7.889328    0.000002   0.000003  -0.000001
  69 H     -15.362749  -2.842560  -6.427056    0.000003  -0.000001   0.000001
  70 H     -13.380833   4.860295   2.950289   -0.000001  -0.000004   0.000001
  71 H      15.284872   2.781028  -6.654803   -0.000000  -0.000002   0.000000
  72 H      -6.193257  -9.019673   9.753509   -0.000006   0.000001   0.000001
  73 H     -14.302507  -7.376357   2.470971   -0.000001   0.000001  -0.000005
  74 O       4.022774 -10.525000   3.967365   -0.000001  -0.000007   0.000003
  75 O      -3.200942  -6.916141  -1.303142   -0.000049   0.000002  -0.000039
  76 H       3.726681  -5.449843   7.894727   -0.000010   0.000006  -0.000006
  77 H      -4.435607  -2.462695   6.670615   -0.000004  -0.000007  -0.000012
  78 O      -4.516070   8.900632   8.731568    0.000010   0.000008   0.000007
  79 O       0.134128   9.545232   6.766899    0.000001  -0.000014   0.000023
  80 H      -8.548011  -5.781533  -8.033155    0.000002  -0.000000   0.000001
  81 H      -3.977909   0.275327  -4.792579   -0.000007  -0.000003  -0.000017
  82 H       7.417310 -14.324552  -0.379268   -0.000003  -0.000000   0.000005
  83 O      -9.546972   0.091468  -4.774073   -0.000005   0.000004   0.000008
  84 O      -1.867232  -4.797481   6.843009    0.000005   0.000002  -0.000002
  85 O      -9.071262  -3.151015   2.999297   -0.000001   0.000006   0.000023
  86 O      13.570926   2.841611  -6.100454    0.000003   0.000001  -0.000003
  87 H       8.157917   2.212942   4.065102   -0.000000  -0.000013  -0.000000
  88 O       5.361087   0.973926   6.064149    0.000005  -0.000010   0.000000
  89 O      -3.384045   3.942982   7.015503   -0.000022  -0.000004   0.000029
  90 H      -5.534917  -3.707167  -5.844036    0.000007   0.000014   0.000008
  91 O      -0.038226  -9.460635   6.865577   -0.000007   0.000011   0.000008
  92 O      12.806381   6.644021   1.653805    0.000003   0.000001   0.000006
  93 O       5.009662   8.729074   8.417983   -0.000004  -0.000005   0.000001
  94 O       6.645296 -12.799531   0.187516    0.000000   0.000000  -0.000004
  95 O      -7.802216  -7.424917   0.657262   -0.000005   0.000004  -0.000015
  96 H       0.379647   3.960016   6.931132    0.000003   0.000003  -0.000008
  97 O      10.507667   4.000514  -2.094426    0.000010  -0.000000  -0.000004
  98 O       0.916367  -5.317633  -4.106511   -0.000009   0.000004  -0.000007
  99 H      -2.547177   4.440612  -4.629702   -0.000003   0.000016   0.000017
 100 H       5.937064  -8.467803   9.977609   -0.000008  -0.000005   0.000005
 101 O     -13.641888  -2.895409  -5.893742   -0.000006   0.000003   0.000002
 102 H       8.454001   5.714078  -8.203461    0.000003   0.000013   0.000010
 103 O       8.406342  -3.820883  -1.530662   -0.000002   0.000006   0.000001
 104 O       8.564616  -4.997962  -6.525506   -0.000004  -0.000001   0.000005
 105 H      13.425770  -4.809051   2.822463   -0.000004   0.000002   0.000004
 106 Si     10.650537   2.783606  -4.975876   -0.000005   0.000011   0.000017
 107 O       1.209221   2.206289  -0.890526    0.000011  -0.000079  -0.000085
 108 O      -1.215490  -2.213796  -0.838266    0.000007  -0.000093   0.000104
 109 O       6.927757  -3.193139   3.322972    0.000008  -0.000004  -0.000007
 110 Si      4.932990   8.702552   0.504556   -0.000007   0.000010   0.000043
 111 O       3.189348  -9.105260  -0.962904   -0.000011  -0.000014   0.000004
 112 H      -3.616520   5.547632   7.885147    0.000017   0.000001  -0.000015
 113 H      -0.280731  -3.874406   6.969800   -0.000009   0.000000   0.000001
 114 Si     -2.767097  10.737724   6.797382   -0.000010  -0.000008  -0.000019
 115 O       3.184151   6.907883  -1.414132    0.000036   0.000002  -0.000021
 116 Si     -4.492531   1.885309   4.889677    0.000032   0.000015   0.000057
 117 H       4.776493  13.409525  -0.922879   -0.000004   0.000000  -0.000003
 118 Bi     -0.064147  -0.048285 -10.132137    0.000003  -0.000001  -0.000005

  no constraints, skipping    0.0000000000000000     

  Step       Energy      Delta E   Gmax     Grms     Xrms     Xmax   Walltime
  ---- ---------------- -------- -------- -------- -------- -------- --------
@    1   -3877.34313156 -2.5D-06  0.00002  0.00000  0.00044  0.00284    184.9
                                     ok       ok       ok           

  no constraints, skipping    0.0000000000000000     
  no constraints, skipping    0.0000000000000000     
  no constraints, skipping    0.0000000000000000     

                                 NWChem DFT Module
                                 -----------------


                                   Bi@Quartz ecp



  Caching 1-el integrals 
   Time after variat. SCF:    194.2
   Time prior to 1st pass:    194.3

           Memory utilization after 1st SCF pass: 
           Heap Space remaining (MW):       26.02            26016028
          Stack Space remaining (MW):       26.17            26173460

   convergence    iter        energy       DeltaE   RMS-Dens  Diis-err    time
 ---------------- ----- ----------------- --------- --------- ---------  ------
 d= 0,ls=0.0,diis     1  -3877.3431873142 -1.97D+04  9.31D-06  7.20D-06   208.9
                                                     9.11D-06  7.11D-06
 d= 0,ls=0.0,diis     2  -3877.3431301975  5.71D-05  5.29D-06  4.41D-06   215.6
                                                     5.17D-06  4.32D-06
 d= 0,ls=0.0,diis     3  -3877.3431318247 -1.63D-06  3.47D-06  8.27D-07   222.6
                                                     3.40D-06  8.10D-07
 d= 0,ls=0.0,diis     4  -3877.3431321075 -2.83D-07  5.55D-07  2.72D-07   229.4
                                                     5.44D-07  2.72D-07


         Total DFT energy =    -3877.343132107451
      One electron energy =   -37249.869420451461
           Coulomb energy =    18001.845635999394
    Exchange-Corr. energy =     -475.398175231289
 Nuclear repulsion energy =    15846.509333552434

    Dispersion correction =       -0.430505976527

 Numeric. integr. density =      615.000434199912

     Total iterative time =     35.1s



     --------------------------
     Expectation value of S2:  
     --------------------------
      <S2> =      3.7515 (Exact =     3.7500)

 Line search: 
     step= 1.00 grad=-1.8D-07 hess=-3.7D-07 energy=  -3877.343132 mode=accept  
 new step= 1.00                   predicted energy=  -3877.343132
  no constraints, skipping    0.0000000000000000     
  no constraints, skipping    0.0000000000000000     
  no constraints, skipping    0.0000000000000000     

          --------
          Step   2
          --------

                                 NWChem DFT Module
                                 -----------------


                                   Bi@Quartz ecp




  The DFT is already converged 

         Total DFT energy =  -3877.343132107451



                         DFT ENERGY GRADIENTS

    atom               coordinates                        gradient
                 x          y          z           x          y          z
   1 O      -8.644140   4.941593  -6.466068    0.000003   0.000009  -0.000005
   2 H       2.188698  -8.142523  -2.161493    0.000011   0.000004   0.000006
   3 O       3.877015   3.420872  -5.059375    0.000014  -0.000004   0.000016
   4 O     -11.668071   4.964560   2.400002    0.000002   0.000005   0.000008
   5 O       2.914091 -13.573732   7.996341   -0.000001  -0.000005   0.000000
   6 Si      4.564026  -1.817101   4.852800   -0.000033  -0.000002   0.000019
   7 O      -4.875344   1.878116  -4.689078    0.000010  -0.000003   0.000014
   8 Si      5.301144 -10.118900   1.098413    0.000015   0.000005  -0.000007
   9 Si     -1.859295  -4.544949  -2.847301    0.000029   0.000054  -0.000041
  10 Si     -7.912403   2.753802  -4.361396    0.000001  -0.000000   0.000005
  11 H       2.489849  -4.477825  -4.615557   -0.000005  -0.000008   0.000003
  12 Si      7.859177  -2.786783  -4.436440    0.000014  -0.000005  -0.000008
  13 Si      1.826240   4.523937  -2.923711   -0.000032   0.000037   0.000051
  14 Si     -5.277121  10.145048   1.059209    0.000002  -0.000009   0.000031
  15 Si     -8.692064   4.971723   1.458935   -0.000011   0.000009   0.000053
  16 H       2.848708 -15.287295   8.551108    0.000001   0.000002  -0.000002
  17 H      -2.208868   8.131977  -2.220003   -0.000000   0.000000   0.000000
  18 H      -8.094425  -2.155337   4.191897    0.000007   0.000006  -0.000005
  19 O       4.817832  -1.915506  -4.734414   -0.000001   0.000006   0.000017
  20 O      -4.890936  -8.623640   8.572438   -0.000003   0.000000   0.000006
  21 O     -12.779747  -6.608355   1.893170   -0.000005   0.000003   0.000005
  22 O      -7.420814   7.846597   1.415657   -0.000008   0.000009  -0.000078
  23 O      -0.965673   5.285783  -4.152774    0.000004  -0.000009  -0.000022
  24 O       3.482139  -3.854655   7.011506    0.000015  -0.000001   0.000007
  25 O      -5.270475  -0.894379   6.137551    0.000006   0.000023   0.000004
  26 O      -8.421773   3.820500  -1.460727    0.000001  -0.000002  -0.000004
  27 O      -6.630072  12.817641   0.137801    0.000003  -0.000002   0.000001
  28 O       9.116380   3.195559   2.848777   -0.000005   0.000012   0.000017
  29 O       1.964321   4.882329   6.775045   -0.000006  -0.000006   0.000014
  30 H       3.917529  -0.314692  -4.843142   -0.000011  -0.000003   0.000001
  31 H      -4.791996 -13.410759  -0.718409   -0.000001   0.000006  -0.000003
  32 O      -3.192962   9.107522  -1.018566    0.000001  -0.000001  -0.000001
  33 O      -3.935491  -3.456361  -4.966277   -0.000003  -0.000003  -0.000012
  34 O       4.635698  -8.793802   8.765591    0.000008   0.000005  -0.000010
  35 O       9.487656  -0.129232  -4.899499   -0.000008   0.000001  -0.000019
  36 Si     10.118292   5.296203   0.769915    0.000009   0.000009   0.000032
  37 Si      2.802780   7.917722   6.361005    0.000003   0.000014  -0.000017
  38 O      -3.778951  -8.341666   3.573452   -0.000003  -0.000000  -0.000004
  39 O     -10.527484  -4.009874  -1.914209   -0.000001  -0.000005  -0.000005
  40 H      -7.408255  14.337332  -0.434862   -0.000002   0.000005   0.000004
  41 H      -2.730464  15.390919   8.424388   -0.000002  -0.000006  -0.000001
  42 Si      2.863662 -10.652185   6.873078    0.000003   0.000003  -0.000012
  43 O       8.774131   4.487197  -6.913797   -0.000009  -0.000018  -0.000026
  44 O       4.897368  11.692512  -0.390629   -0.000000   0.000008   0.000007
  45 Si      0.009934   0.011043   0.990195    0.000004   0.000074   0.000052
  46 Si     -4.923873  -8.688325   0.659610    0.000023   0.000010   0.000029
  47 O       3.830090   8.387869   3.438105   -0.000002  -0.000001  -0.000001
  48 H       8.904636  -6.310809  -7.712658   -0.000000   0.000005   0.000006
  49 H      -5.804441   8.588084   9.960436    0.000001   0.000001  -0.000008
  50 Si    -10.707843  -2.822749  -4.805856    0.000003   0.000002   0.000012
  51 O       7.812244   7.440979   0.474889   -0.000014  -0.000021  -0.000072
  52 Si     -2.711747  -7.837290   6.476282    0.000004  -0.000025  -0.000004
  53 O      -4.903100 -11.687747  -0.203154    0.000003  -0.000010   0.000007
  54 O      -3.961920  10.579476   3.907020    0.000006   0.000003   0.000005
  55 O      11.705881  -4.920776   2.296930    0.000001  -0.000002  -0.000002
  56 H       4.532702   2.546394   6.594145   -0.000002  -0.000005  -0.000012
  57 O      -8.853271  -4.544043  -6.749927   -0.000000  -0.000007  -0.000009
  58 Si    -10.102244  -5.274167   0.958556    0.000003  -0.000002   0.000005
  59 O       2.234682  -1.190325   2.834436    0.000034   0.000019  -0.000033
  60 H      -8.998796   6.241066  -7.663546    0.000004  -0.000008   0.000004
  61 H       5.465304   3.661610  -5.959983   -0.000007   0.000003  -0.000008
  62 O      -2.189525   1.240732   2.846193   -0.000056  -0.000008  -0.000076
  63 O      -6.876625   3.246018   3.378346    0.000001  -0.000030  -0.000040
  64 H      14.335712   7.418923   2.204316    0.000002  -0.000003  -0.000002
  65 O       7.446690  -7.814939   1.404096   -0.000014  -0.000000   0.000005
  66 Si      8.717039  -4.939356   1.397574    0.000005   0.000009  -0.000003
  67 H       6.327140   9.141077   9.576827   -0.000006   0.000003  -0.000007
  68 O      -2.802895  13.671579   7.888721    0.000002   0.000009   0.000003
  69 H     -15.362723  -2.842816  -6.426742    0.000001  -0.000001  -0.000000
  70 H     -13.380695   4.859026   2.949794    0.000004  -0.000003  -0.000000
  71 H      15.285121   2.781694  -6.653823   -0.000003   0.000000   0.000001
  72 H      -6.193104  -9.019939   9.753601    0.000001   0.000002  -0.000005
  73 H     -14.302521  -7.376384   2.471256    0.000002   0.000002  -0.000006
  74 O       4.022664 -10.525047   3.967033   -0.000003  -0.000005   0.000006
  75 O      -3.201200  -6.915810  -1.302946   -0.000043   0.000005  -0.000030
  76 H       3.726380  -5.450238   7.894597   -0.000011   0.000003  -0.000003
  77 H      -4.435554  -2.462368   6.671168   -0.000005  -0.000017  -0.000006
  78 O      -4.516180   8.900952   8.731202    0.000001   0.000005   0.000014
  79 O       0.134152   9.545343   6.766788   -0.000007  -0.000010   0.000024
  80 H      -8.548220  -5.782147  -8.032071    0.000002   0.000005   0.000006
  81 H      -3.977778   0.275150  -4.792987   -0.000003  -0.000002  -0.000016
  82 H       7.417318 -14.324311  -0.379869   -0.000001   0.000000   0.000005
  83 O      -9.546869   0.091604  -4.774208   -0.000006   0.000001  -0.000002
  84 O      -1.866987  -4.797534   6.843272    0.000021   0.000009   0.000006
  85 O      -9.071241  -3.151032   2.999998   -0.000009  -0.000008   0.000006
  86 O      13.571117   2.841862  -6.099619    0.000006   0.000002  -0.000003
  87 H       8.156854   2.212981   4.065309   -0.000002  -0.000010  -0.000013
  88 O       5.360698   0.973524   6.064458    0.000009  -0.000003   0.000013
  89 O      -3.383402   3.943208   7.015272   -0.000017  -0.000016   0.000013
  90 H      -5.535216  -3.707177  -5.843853   -0.000001   0.000009   0.000003
  91 O      -0.038135  -9.460684   6.865597   -0.000007   0.000017   0.000013
  92 O      12.806280   6.643407   1.654469    0.000000  -0.000002   0.000004
  93 O       5.009716   8.729585   8.417993    0.000007  -0.000003   0.000009
  94 O       6.645128 -12.799412   0.187002    0.000002  -0.000003  -0.000005
  95 O      -7.802400  -7.424731   0.657493   -0.000003   0.000000  -0.000022
  96 H       0.379812   3.960376   6.931046    0.000005   0.000004  -0.000011
  97 O      10.507362   4.000240  -2.093872    0.000005  -0.000003  -0.000007
  98 O       0.916088  -5.317918  -4.106496   -0.000003   0.000002   0.000007
  99 H      -2.546645   4.440452  -4.630036    0.000003   0.000013   0.000017
 100 H       5.937572  -8.468234   9.977077   -0.000008  -0.000004   0.000005
 101 O     -13.641882  -2.895430  -5.893323   -0.000003   0.000001   0.000002
 102 H       8.454537   5.714363  -8.202883    0.000008   0.000008   0.000017
 103 O       8.406146  -3.820933  -1.530756    0.000002  -0.000001   0.000001
 104 O       8.564578  -4.997906  -6.525636   -0.000004  -0.000006  -0.000004
 105 H      13.425702  -4.808665   2.822429   -0.000002   0.000002   0.000004
 106 Si     10.650608   2.783533  -4.975373   -0.000002   0.000007   0.000022
 107 O       1.209487   2.206331  -0.890448    0.000011  -0.000077  -0.000089
 108 O      -1.215411  -2.213659  -0.838553    0.000008  -0.000099   0.000098
 109 O       6.927640  -3.193426   3.323089    0.000005  -0.000013  -0.000002
 110 Si      4.933084   8.702730   0.504591   -0.000009   0.000002   0.000045
 111 O       3.189365  -9.104707  -0.963004   -0.000020   0.000002  -0.000004
 112 H      -3.616188   5.547733   7.885088    0.000012   0.000003  -0.000007
 113 H      -0.280281  -3.874726   6.969692   -0.000011  -0.000004  -0.000006
 114 Si     -2.767039  10.737891   6.796981   -0.000001   0.000001  -0.000024
 115 O       3.184441   6.907910  -1.414141    0.000034   0.000008  -0.000019
 116 Si     -4.492156   1.885442   4.889682    0.000028   0.000022   0.000058
 117 H       4.776328  13.409618  -0.923089   -0.000003  -0.000004  -0.000002
 118 Bi     -0.066776  -0.047594 -10.133037    0.000000  -0.000001  -0.000004

  no constraints, skipping    0.0000000000000000     

  Step       Energy      Delta E   Gmax     Grms     Xrms     Xmax   Walltime
  ---- ---------------- -------- -------- -------- -------- -------- --------
@    2   -3877.34313211 -5.5D-07  0.00001  0.00000  0.00036  0.00263    271.8
                                     ok       ok       ok           

  no constraints, skipping    0.0000000000000000     
  no constraints, skipping    0.0000000000000000     
  no constraints, skipping    0.0000000000000000     
  no constraints, skipping    0.0000000000000000     

                                 NWChem DFT Module
                                 -----------------


                                   Bi@Quartz ecp



  Caching 1-el integrals 
   Time after variat. SCF:    282.0
   Time prior to 1st pass:    282.0

           Memory utilization after 1st SCF pass: 
           Heap Space remaining (MW):       26.02            26016028
          Stack Space remaining (MW):       26.17            26173460

   convergence    iter        energy       DeltaE   RMS-Dens  Diis-err    time
 ---------------- ----- ----------------- --------- --------- ---------  ------
 d= 0,ls=0.0,diis     1  -3877.3431871896 -1.97D+04  9.30D-06  6.30D-06   296.7
                                                     9.11D-06  6.21D-06
 d= 0,ls=0.0,diis     2  -3877.3431300406  5.71D-05  5.10D-06  4.40D-06   303.5
                                                     4.99D-06  4.31D-06
 d= 0,ls=0.0,diis     3  -3877.3431316317 -1.59D-06  3.69D-06  8.98D-07   310.3
                                                     3.61D-06  8.79D-07
 d= 0,ls=0.0,diis     4  -3877.3431319786 -3.47D-07  5.08D-07  1.78D-07   317.2
                                                     4.98D-07  1.78D-07


         Total DFT energy =    -3877.343131978565
      One electron energy =   -37249.774892600748
           Coulomb energy =    18001.799691258064
    Exchange-Corr. energy =     -475.398218623635
 Nuclear repulsion energy =    15846.460790764590

    Dispersion correction =       -0.430502776835

 Numeric. integr. density =      615.000430055861

     Total iterative time =     35.3s



     --------------------------
     Expectation value of S2:  
     --------------------------
      <S2> =      3.7515 (Exact =     3.7500)

 Line search: 
     step= 1.00 grad=-1.7D-07 hess= 3.0D-07 energy=  -3877.343132 mode=accept  
 new step= 1.00                   predicted energy=  -3877.343132
  no constraints, skipping    0.0000000000000000     
  no constraints, skipping    0.0000000000000000     
  no constraints, skipping    0.0000000000000000     
  no constraints, skipping    0.0000000000000000     

          --------
          Step   3
          --------

                                 NWChem DFT Module
                                 -----------------


                                   Bi@Quartz ecp




  The DFT is already converged 

         Total DFT energy =  -3877.343131978565



                         DFT ENERGY GRADIENTS

    atom               coordinates                        gradient
                 x          y          z           x          y          z
   1 O      -8.644514   4.941759  -6.466400    0.000005   0.000007  -0.000004
   2 H       2.188905  -8.143183  -2.161515    0.000013  -0.000001   0.000001
   3 O       3.877180   3.420845  -5.059499    0.000011  -0.000012   0.000010
   4 O     -11.668106   4.964077   2.399257    0.000005   0.000001   0.000002
   5 O       2.913875 -13.573884   7.996435   -0.000002  -0.000001   0.000000
   6 Si      4.563825  -1.817247   4.852617   -0.000027  -0.000008   0.000011
   7 O      -4.875367   1.878371  -4.689788   -0.000001  -0.000007   0.000007
   8 Si      5.301394 -10.119156   1.098571    0.000010   0.000005  -0.000012
   9 Si     -1.859423  -4.545093  -2.847398    0.000007   0.000049  -0.000054
  10 Si     -7.912355   2.754043  -4.361804    0.000007  -0.000004   0.000004
  11 H       2.489577  -4.478227  -4.615958   -0.000015  -0.000008  -0.000003
  12 Si      7.859184  -2.786813  -4.436705    0.000012  -0.000015  -0.000009
  13 Si      1.826452   4.523906  -2.923757   -0.000024   0.000041   0.000051
  14 Si     -5.277182  10.145084   1.059233    0.000001  -0.000009   0.000027
  15 Si     -8.691952   4.971759   1.458636   -0.000004   0.000008   0.000043
  16 H       2.848562 -15.287440   8.551233    0.000002   0.000002  -0.000002
  17 H      -2.209054   8.131592  -2.219874   -0.000001  -0.000005  -0.000002
  18 H      -8.094278  -2.155159   4.192353    0.000004   0.000005  -0.000005
  19 O       4.817886  -1.915548  -4.735246   -0.000011   0.000019   0.000026
  20 O      -4.890907  -8.623947   8.572443   -0.000004   0.000002   0.000003
  21 O     -12.779706  -6.608074   1.893603    0.000002   0.000005   0.000002
  22 O      -7.421061   7.846800   1.415820   -0.000013   0.000012  -0.000071
  23 O      -0.965453   5.285860  -4.152822    0.000002  -0.000007  -0.000018
  24 O       3.481829  -3.854907   7.011186    0.000004   0.000005   0.000001
  25 O      -5.270479  -0.894065   6.137700    0.000004   0.000011   0.000005
  26 O      -8.421278   3.820809  -1.461081    0.000004   0.000002   0.000000
  27 O      -6.630050  12.817649   0.137650    0.000010  -0.000012   0.000005
  28 O       9.116512   3.195645   2.849133   -0.000003   0.000009   0.000010
  29 O       1.964351   4.882200   6.775105   -0.000003  -0.000003   0.000015
  30 H       3.917622  -0.314769  -4.844681   -0.000006  -0.000006  -0.000012
  31 H      -4.792400 -13.410688  -0.718191   -0.000001   0.000005  -0.000002
  32 O      -3.193120   9.107251  -1.018484    0.000001   0.000005   0.000003
  33 O      -3.935575  -3.456404  -4.966358   -0.000004   0.000012  -0.000014
  34 O       4.635777  -8.794030   8.765628    0.000016   0.000003  -0.000005
  35 O       9.487728  -0.129201  -4.899436   -0.000005   0.000003  -0.000024
  36 Si     10.118406   5.296239   0.770219    0.000004   0.000008   0.000031
  37 Si      2.802854   7.917578   6.361127    0.000007   0.000011  -0.000009
  38 O      -3.778978  -8.341593   3.573506   -0.000001   0.000003  -0.000007
  39 O     -10.527604  -4.009305  -1.913751   -0.000001   0.000000  -0.000003
  40 H      -7.408467  14.337158  -0.435230   -0.000009   0.000012  -0.000001
  41 H      -2.730346  15.390843   8.424509   -0.000004  -0.000004  -0.000000
  42 Si      2.863620 -10.652358   6.873146   -0.000010  -0.000008  -0.000010
  43 O       8.774272   4.487375  -6.913391   -0.000011  -0.000012  -0.000023
  44 O       4.897381  11.692429  -0.390520   -0.000001   0.000004   0.000007
  45 Si      0.009941   0.010930   0.989936   -0.000000   0.000079   0.000042
  46 Si     -4.924091  -8.688223   0.659734    0.000014   0.000003   0.000030
  47 O       3.830232   8.387751   3.438249    0.000001  -0.000001  -0.000004
  48 H       8.905857  -6.310519  -7.712875    0.000002   0.000005   0.000007
  49 H      -5.804461   8.588077   9.960287    0.000002   0.000002  -0.000009
  50 Si    -10.707913  -2.822499  -4.805552    0.000001   0.000011   0.000008
  51 O       7.812481   7.441140   0.475203   -0.000004  -0.000012  -0.000064
  52 Si     -2.711753  -7.837300   6.476355    0.000005  -0.000021  -0.000006
  53 O      -4.903492 -11.687626  -0.203090    0.000003  -0.000007   0.000002
  54 O      -3.961852  10.579577   3.906972    0.000006  -0.000000   0.000001
  55 O      11.705785  -4.920508   2.296682   -0.000008  -0.000001   0.000002
  56 H       4.532177   2.546251   6.594107   -0.000001  -0.000006  -0.000011
  57 O      -8.853374  -4.544193  -6.749340    0.000002  -0.000014  -0.000011
  58 Si    -10.102276  -5.273789   0.958935    0.000000  -0.000003   0.000008
  59 O       2.234538  -1.190599   2.834201    0.000025   0.000014  -0.000026
  60 H      -8.999619   6.241250  -7.663732    0.000001  -0.000006   0.000003
  61 H       5.465708   3.661677  -5.959704   -0.000001   0.000002  -0.000003
  62 O      -2.189438   1.240566   2.846058   -0.000045  -0.000013  -0.000063
  63 O      -6.876501   3.246149   3.378129    0.000004  -0.000026  -0.000029
  64 H      14.335733   7.419230   2.204509    0.000007   0.000003   0.000001
  65 O       7.446806  -7.815035   1.404124   -0.000012  -0.000002   0.000003
  66 Si      8.716923  -4.939345   1.397397    0.000009   0.000010  -0.000010
  67 H       6.327033   9.141062   9.577090   -0.000004   0.000004  -0.000005
  68 O      -2.802694  13.671507   7.888803    0.000003   0.000005   0.000002
  69 H     -15.362732  -2.842859  -6.426629   -0.000004  -0.000002  -0.000002
  70 H     -13.380778   4.858415   2.948903   -0.000001  -0.000002   0.000002
  71 H      15.285270   2.782216  -6.653380   -0.000004   0.000003   0.000000
  72 H      -6.192889  -9.020587   9.753701    0.000001  -0.000000  -0.000002
  73 H     -14.302294  -7.376331   2.471904   -0.000001  -0.000002  -0.000003
  74 O       4.022776 -10.525249   3.967142   -0.000004  -0.000001   0.000007
  75 O      -3.201369  -6.915798  -1.302864   -0.000036   0.000006  -0.000022
  76 H       3.726280  -5.450460   7.894276   -0.000007   0.000000  -0.000004
  77 H      -4.435535  -2.461908   6.671621   -0.000006  -0.000001  -0.000005
  78 O      -4.516204   8.900906   8.731041   -0.000002   0.000001   0.000015
  79 O       0.134182   9.545162   6.766749   -0.000006  -0.000021   0.000019
  80 H      -8.548533  -5.782493  -8.031341    0.000001   0.000007   0.000008
  81 H      -3.977692   0.275472  -4.793265   -0.000005   0.000010  -0.000009
  82 H       7.418277 -14.324274  -0.379570    0.000003  -0.000003   0.000002
  83 O      -9.546885   0.091820  -4.774280   -0.000008  -0.000002  -0.000003
  84 O      -1.867068  -4.797562   6.843553    0.000018   0.000004   0.000014
  85 O      -9.071127  -3.150786   3.000419   -0.000006  -0.000008   0.000005
  86 O      13.571247   2.842034  -6.099199    0.000005   0.000000  -0.000002
  87 H       8.157040   2.213113   4.065734    0.000005  -0.000003  -0.000007
  88 O       5.360244   0.973394   6.064421   -0.000001   0.000009   0.000014
  89 O      -3.383140   3.943501   7.014796   -0.000010  -0.000020   0.000003
  90 H      -5.535416  -3.707430  -5.843669    0.000003   0.000001   0.000009
  91 O      -0.038095  -9.460686   6.865590    0.000000   0.000015   0.000014
  92 O      12.806436   6.643432   1.654645   -0.000008  -0.000007  -0.000000
  93 O       5.009680   8.729525   8.418186    0.000004  -0.000003   0.000005
  94 O       6.645683 -12.799582   0.187333   -0.000000   0.000000  -0.000002
  95 O      -7.802524  -7.424444   0.657714   -0.000000  -0.000002  -0.000019
  96 H       0.379679   3.960437   6.930868    0.000003   0.000001  -0.000013
  97 O      10.507324   4.000172  -2.093523    0.000000   0.000000  -0.000005
  98 O       0.915971  -5.318288  -4.106474    0.000004  -0.000000   0.000023
  99 H      -2.546299   4.440547  -4.630478    0.000012   0.000010   0.000014
 100 H       5.937645  -8.468209   9.977047   -0.000008  -0.000001   0.000004
 101 O     -13.641904  -2.895311  -5.893123    0.000004   0.000001   0.000003
 102 H       8.454785   5.714514  -8.202532    0.000008   0.000007   0.000015
 103 O       8.405864  -3.821055  -1.530980    0.000006  -0.000004   0.000001
 104 O       8.565173  -4.997739  -6.525900   -0.000005  -0.000000  -0.000005
 105 H      13.425656  -4.808342   2.822040    0.000005   0.000002   0.000004
 106 Si     10.650716   2.783543  -4.975043    0.000005   0.000000   0.000023
 107 O       1.209548   2.206304  -0.890552    0.000011  -0.000073  -0.000089
 108 O      -1.215412  -2.213686  -0.838842    0.000017  -0.000100   0.000101
 109 O       6.927510  -3.193475   3.322974   -0.000002  -0.000011   0.000005
 110 Si      4.933215   8.702663   0.504746   -0.000006  -0.000002   0.000043
 111 O       3.189630  -9.105202  -0.962947   -0.000010  -0.000004   0.000008
 112 H      -3.616238   5.547982   7.884653    0.000007   0.000007  -0.000004
 113 H      -0.280252  -3.874854   6.969616   -0.000008  -0.000003  -0.000011
 114 Si     -2.766926  10.737877   6.796938    0.000008   0.000011  -0.000018
 115 O       3.184633   6.907784  -1.414016    0.000019   0.000008  -0.000017
 116 Si     -4.492039   1.885572   4.889444    0.000025   0.000024   0.000048
 117 H       4.776428  13.409563  -0.922925   -0.000002  -0.000001  -0.000002
 118 Bi     -0.069570  -0.046700 -10.133099   -0.000001  -0.000001  -0.000004

  no constraints, skipping    0.0000000000000000     

  Step       Energy      Delta E   Gmax     Grms     Xrms     Xmax   Walltime
  ---- ---------------- -------- -------- -------- -------- -------- --------
@    3   -3877.34313198  1.3D-07  0.00002  0.00000  0.00031  0.00279    361.7
                                     ok       ok       ok           

  no constraints, skipping    0.0000000000000000     
  no constraints, skipping    0.0000000000000000     
  no constraints, skipping    0.0000000000000000     
  no constraints, skipping    0.0000000000000000     

                                 NWChem DFT Module
                                 -----------------


                                   Bi@Quartz ecp



  Caching 1-el integrals 
   Time after variat. SCF:    372.3
   Time prior to 1st pass:    372.3

           Memory utilization after 1st SCF pass: 
           Heap Space remaining (MW):       26.02            26016028
          Stack Space remaining (MW):       26.17            26173460

   convergence    iter        energy       DeltaE   RMS-Dens  Diis-err    time
 ---------------- ----- ----------------- --------- --------- ---------  ------
 d= 0,ls=0.0,diis     1  -3877.3431856993 -1.97D+04  9.30D-06  6.21D-06   387.0
                                                     9.10D-06  6.11D-06
 d= 0,ls=0.0,diis     2  -3877.3431285393  5.72D-05  5.08D-06  4.41D-06   393.7
                                                     4.97D-06  4.31D-06
 d= 0,ls=0.0,diis     3  -3877.3431301273 -1.59D-06  3.55D-06  9.09D-07   400.6
                                                     3.48D-06  8.90D-07
 d= 0,ls=0.0,diis     4  -3877.3431304630 -3.36D-07  6.69D-07  2.22D-07   407.4
                                                     6.55D-07  2.22D-07


         Total DFT energy =    -3877.343130463012
      One electron energy =   -37249.761483827606
           Coulomb energy =    18001.792796193437
    Exchange-Corr. energy =     -475.398047763001
 Nuclear repulsion energy =    15846.454110814835

    Dispersion correction =       -0.430505880678

 Numeric. integr. density =      615.000418404913

     Total iterative time =     35.1s



     --------------------------
     Expectation value of S2:  
     --------------------------
      <S2> =      3.7515 (Exact =     3.7500)

 Line search: 
     step= 1.00 grad=-1.5D-07 hess= 1.7D-06 energy=  -3877.343130 mode=accept  
 new step= 1.00                   predicted energy=  -3877.343130
  no constraints, skipping    0.0000000000000000     
  no constraints, skipping    0.0000000000000000     
  no constraints, skipping    0.0000000000000000     
  no constraints, skipping    0.0000000000000000     

          --------
          Step   4
          --------

                                 NWChem DFT Module
                                 -----------------


                                   Bi@Quartz ecp




  The DFT is already converged 

         Total DFT energy =  -3877.343130463012



                         DFT ENERGY GRADIENTS

    atom               coordinates                        gradient
                 x          y          z           x          y          z
   1 O      -8.644937   4.941739  -6.466777    0.000001  -0.000001  -0.000003
   2 H       2.188708  -8.142750  -2.161051   -0.000001   0.000003  -0.000000
   3 O       3.877153   3.421107  -5.059812    0.000006  -0.000015   0.000004
   4 O     -11.668283   4.963590   2.398687   -0.000004  -0.000003  -0.000001
   5 O       2.913519 -13.573868   7.996647   -0.000003   0.000003  -0.000002
   6 Si      4.563971  -1.817443   4.852375   -0.000010   0.000001   0.000001
   7 O      -4.875554   1.878407  -4.690049   -0.000014  -0.000010   0.000007
   8 Si      5.301279 -10.119039   1.098854    0.000005   0.000001  -0.000008
   9 Si     -1.859283  -4.545326  -2.847481   -0.000005   0.000044  -0.000050
  10 Si     -7.912492   2.754205  -4.362106    0.000007  -0.000002  -0.000002
  11 H       2.489642  -4.478115  -4.616328   -0.000022  -0.000001  -0.000005
  12 Si      7.859488  -2.786923  -4.436927   -0.000002  -0.000013  -0.000005
  13 Si      1.826537   4.523883  -2.923793   -0.000003   0.000040   0.000049
  14 Si     -5.277550  10.145231   1.059626    0.000007  -0.000006   0.000022
  15 Si     -8.692000   4.971759   1.458440    0.000010   0.000010   0.000030
  16 H       2.848095 -15.287424   8.551444    0.000003  -0.000001  -0.000000
  17 H      -2.209508   8.131596  -2.219490   -0.000004  -0.000004  -0.000006
  18 H      -8.094027  -2.155060   4.192529    0.000000   0.000005  -0.000003
  19 O       4.818225  -1.915776  -4.735979   -0.000004   0.000015   0.000030
  20 O      -4.890957  -8.623635   8.572363   -0.000006  -0.000002   0.000001
  21 O     -12.779457  -6.607935   1.893897   -0.000000   0.000001   0.000001
  22 O      -7.421489   7.846974   1.416255   -0.000022   0.000011  -0.000059
  23 O      -0.965534   5.285766  -4.152598    0.000017   0.000001  -0.000005
  24 O       3.482065  -3.855217   7.010915   -0.000005   0.000001   0.000002
  25 O      -5.270315  -0.893961   6.137520    0.000001   0.000001   0.000001
  26 O      -8.421098   3.821185  -1.461395    0.000003   0.000005   0.000003
  27 O      -6.630414  12.817728   0.137846    0.000003   0.000002   0.000002
  28 O       9.116333   3.195338   2.849039    0.000005   0.000006   0.000002
  29 O       1.964209   4.882325   6.774936    0.000004   0.000014   0.000007
  30 H       3.917923  -0.315075  -4.845863   -0.000000  -0.000007  -0.000021
  31 H      -4.792692 -13.410873  -0.717740    0.000000   0.000004   0.000001
  32 O      -3.193525   9.107241  -1.018046   -0.000001   0.000009   0.000010
  33 O      -3.935505  -3.456662  -4.966353    0.000013   0.000018  -0.000005
  34 O       4.635657  -8.794092   8.765990    0.000019   0.000002  -0.000001
  35 O       9.487995  -0.129216  -4.899346   -0.000001   0.000007  -0.000025
  36 Si     10.118337   5.296112   0.770359    0.000000   0.000009   0.000024
  37 Si      2.802761   7.917679   6.361098    0.000008   0.000006  -0.000000
  38 O      -3.778898  -8.341502   3.573467   -0.000000  -0.000002  -0.000004
  39 O     -10.527567  -4.009068  -1.913600   -0.000001   0.000005   0.000001
  40 H      -7.408899  14.337040  -0.435386   -0.000003  -0.000003   0.000002
  41 H      -2.730325  15.390874   8.424962   -0.000003   0.000000   0.000000
  42 Si      2.863465 -10.652325   6.873428   -0.000018  -0.000011  -0.000000
  43 O       8.774731   4.487375  -6.913362   -0.000008  -0.000009  -0.000015
  44 O       4.897585  11.692378  -0.390725   -0.000003   0.000004   0.000004
  45 Si      0.010106   0.010751   0.989732    0.000001   0.000072   0.000022
  46 Si     -4.924073  -8.688275   0.659723    0.000006  -0.000004   0.000025
  47 O       3.830196   8.387914   3.438243    0.000006  -0.000005  -0.000005
  48 H       8.907084  -6.310340  -7.713140    0.000004  -0.000001   0.000003
  49 H      -5.804201   8.587861   9.960697   -0.000001   0.000000  -0.000006
  50 Si    -10.707909  -2.822420  -4.805479    0.000001   0.000011   0.000001
  51 O       7.812514   7.441135   0.475472    0.000002  -0.000007  -0.000053
  52 Si     -2.711760  -7.836986   6.476318    0.000003   0.000007  -0.000001
  53 O      -4.903718 -11.687698  -0.203003    0.000001  -0.000003  -0.000004
  54 O      -3.962188  10.579787   3.907329    0.000001  -0.000004  -0.000001
  55 O      11.706015  -4.920590   2.296292    0.000000   0.000001   0.000008
  56 H       4.532056   2.546075   6.594010   -0.000001  -0.000004  -0.000009
  57 O      -8.853314  -4.544175  -6.749156    0.000001  -0.000006  -0.000005
  58 Si    -10.102113  -5.273590   0.959059   -0.000002   0.000001   0.000006
  59 O       2.234593  -1.191024   2.833986    0.000016   0.000001  -0.000021
  60 H      -9.000321   6.241289  -7.663976   -0.000001   0.000000   0.000002
  61 H       5.465760   3.662008  -5.959837   -0.000002   0.000006  -0.000001
  62 O      -2.189215   1.240516   2.845881   -0.000039  -0.000013  -0.000047
  63 O      -6.876496   3.246114   3.377873    0.000003  -0.000025  -0.000010
  64 H      14.335443   7.419251   2.205040   -0.000001   0.000002  -0.000000
  65 O       7.447002  -7.815163   1.404230   -0.000007   0.000001  -0.000000
  66 Si      8.717088  -4.939475   1.397216    0.000005   0.000004  -0.000013
  67 H       6.327012   9.140785   9.577121    0.000000   0.000004  -0.000002
  68 O      -2.802761  13.671536   7.889253    0.000002  -0.000003  -0.000000
  69 H     -15.362679  -2.842988  -6.426654   -0.000000  -0.000002  -0.000001
  70 H     -13.380991   4.857936   2.948190    0.000005   0.000001   0.000001
  71 H      15.285736   2.782182  -6.652764   -0.000002   0.000004  -0.000001
  72 H      -6.192803  -9.020477   9.753700    0.000002  -0.000002  -0.000002
  73 H     -14.301861  -7.376221   2.472628    0.000003  -0.000001  -0.000002
  74 O       4.022787 -10.525117   3.967469   -0.000003   0.000001   0.000002
  75 O      -3.201175  -6.916076  -1.302961   -0.000031   0.000003  -0.000025
  76 H       3.726716  -5.450742   7.894022    0.000001  -0.000002  -0.000006
  77 H      -4.435216  -2.461669   6.671628   -0.000003   0.000002  -0.000001
  78 O      -4.516130   8.900780   8.731266    0.000000  -0.000003   0.000011
  79 O       0.134101   9.545299   6.766783   -0.000014  -0.000018   0.000020
  80 H      -8.548652  -5.782495  -8.031199    0.000001   0.000002   0.000002
  81 H      -3.977770   0.275551  -4.793082   -0.000001   0.000007  -0.000005
  82 H       7.417709 -14.324139  -0.379947    0.000002   0.000003   0.000002
  83 O      -9.546999   0.091937  -4.774316   -0.000003  -0.000001  -0.000004
  84 O      -1.866972  -4.797301   6.843494    0.000004  -0.000001   0.000012
  85 O      -9.070828  -3.150642   3.000509    0.000001  -0.000011   0.000003
  86 O      13.571651   2.841926  -6.098759    0.000001  -0.000003   0.000000
  87 H       8.156699   2.212903   4.065619   -0.000007  -0.000008  -0.000003
  88 O       5.360122   0.973233   6.064256    0.000005  -0.000005   0.000013
  89 O      -3.383113   3.943782   7.014300   -0.000006  -0.000014  -0.000001
  90 H      -5.535428  -3.707802  -5.843538   -0.000005  -0.000006   0.000006
  91 O      -0.038196  -9.460565   6.865649    0.000005   0.000001   0.000005
  92 O      12.806328   6.643270   1.654966   -0.000001  -0.000004  -0.000001
  93 O       5.009613   8.729494   8.418171   -0.000001  -0.000004  -0.000002
  94 O       6.645232 -12.799552   0.187376    0.000002  -0.000005  -0.000001
  95 O      -7.802412  -7.424301   0.657796    0.000000  -0.000003  -0.000006
  96 H       0.379466   3.960631   6.930727   -0.000005  -0.000005  -0.000007
  97 O      10.507330   4.000196  -2.093411   -0.000004   0.000003   0.000001
  98 O       0.916185  -5.318339  -4.106614    0.000016  -0.000007   0.000018
  99 H      -2.546299   4.440379  -4.630543    0.000002   0.000001   0.000003
 100 H       5.937454  -8.468144   9.977451   -0.000008   0.000002   0.000002
 101 O     -13.641858  -2.895411  -5.893147    0.000002   0.000001  -0.000001
 102 H       8.455100   5.714257  -8.202720    0.000004   0.000007   0.000010
 103 O       8.405858  -3.821296  -1.531191    0.000007  -0.000007   0.000001
 104 O       8.566026  -4.997663  -6.526139   -0.000005   0.000008  -0.000001
 105 H      13.425976  -4.808565   2.821340   -0.000003  -0.000000  -0.000000
 106 Si     10.651018   2.783509  -4.974892    0.000015  -0.000007   0.000019
 107 O       1.209770   2.206169  -0.890654    0.000003  -0.000068  -0.000083
 108 O      -1.215321  -2.213820  -0.838995    0.000025  -0.000092   0.000109
 109 O       6.927765  -3.193496   3.322796   -0.000006  -0.000007   0.000012
 110 Si      4.933252   8.702679   0.504756   -0.000002   0.000003   0.000039
 111 O       3.189526  -9.104703  -0.962484   -0.000000   0.000004   0.000009
 112 H      -3.616531   5.548208   7.884208    0.000001   0.000009  -0.000003
 113 H      -0.280012  -3.874783   6.969497    0.000001  -0.000000  -0.000009
 114 Si     -2.767011  10.737988   6.797213    0.000015   0.000023  -0.000014
 115 O       3.184637   6.907724  -1.413941    0.000002   0.000002  -0.000018
 116 Si     -4.491921   1.885641   4.889080    0.000025   0.000027   0.000027
 117 H       4.777022  13.409549  -0.923080    0.000000  -0.000004  -0.000001
 118 Bi     -0.071811  -0.046101 -10.132097   -0.000002  -0.000001  -0.000003

  no constraints, skipping    0.0000000000000000     

  Step       Energy      Delta E   Gmax     Grms     Xrms     Xmax   Walltime
  ---- ---------------- -------- -------- -------- -------- -------- --------
@    4   -3877.34313046  1.5D-06  0.00002  0.00000  0.00029  0.00224    450.7
                                     ok       ok       ok           

  no constraints, skipping    0.0000000000000000     
  no constraints, skipping    0.0000000000000000     
  no constraints, skipping    0.0000000000000000     

                                 NWChem DFT Module
                                 -----------------


                                   Bi@Quartz ecp



  Caching 1-el integrals 
   Time after variat. SCF:    460.7
   Time prior to 1st pass:    460.7

           Memory utilization after 1st SCF pass: 
           Heap Space remaining (MW):       26.02            26016028
          Stack Space remaining (MW):       26.17            26173460

   convergence    iter        energy       DeltaE   RMS-Dens  Diis-err    time
 ---------------- ----- ----------------- --------- --------- ---------  ------
 d= 0,ls=0.0,diis     1  -3877.3431850748 -1.97D+04  9.30D-06  6.20D-06   475.4
                                                     9.10D-06  6.10D-06
 d= 0,ls=0.0,diis     2  -3877.3431279313  5.71D-05  5.08D-06  4.41D-06   482.2
                                                     4.97D-06  4.32D-06
 d= 0,ls=0.0,diis     3  -3877.3431295189 -1.59D-06  3.49D-06  9.11D-07   489.1
                                                     3.41D-06  8.93D-07
 d= 0,ls=0.0,diis     4  -3877.3431298480 -3.29D-07  7.38D-07  2.44D-07   495.9
                                                     7.22D-07  2.44D-07


         Total DFT energy =    -3877.343129848048
      One electron energy =   -37249.836810102723
           Coulomb energy =    18001.831550116931
    Exchange-Corr. energy =     -475.398150756111
 Nuclear repulsion energy =    15846.490793037154

    Dispersion correction =       -0.430512143299

 Numeric. integr. density =      615.000414617974

     Total iterative time =     35.2s



     --------------------------
     Expectation value of S2:  
     --------------------------
      <S2> =      3.7515 (Exact =     3.7500)

 Line search: 
     step= 1.00 grad=-1.3D-07 hess= 7.4D-07 energy=  -3877.343130 mode=accept  
 new step= 1.00                   predicted energy=  -3877.343130
  no constraints, skipping    0.0000000000000000     
  no constraints, skipping    0.0000000000000000     
  no constraints, skipping    0.0000000000000000     

          --------
          Step   5
          --------

                                 NWChem DFT Module
[...]
  504 Torsion                 29    37   110    51         -75.37094    0.00097
  505 Torsion                 29    37   110   115          37.51088   -0.00622
  506 Torsion                 37    29    47   110         176.94695   -0.03383
  507 Torsion                 29    37    79   114         -46.59933   -0.03711
  508 Torsion                 37    29    93    67        -176.48610    0.01716
  509 Torsion                 30    19    12    35         -10.75148    0.13401
  510 Torsion                 30    19    12   103         106.10330    0.13529
  511 Torsion                 30    19    12   104        -131.83295    0.14359
  512 Torsion                 14    32    27    40        -178.38548    0.04357
  513 Torsion                 32    14   114    68         118.24021    0.02472
  514 Torsion                 32    14   114    78        -122.14057    0.01471
  515 Torsion                 32    14   114    79          -7.06271    0.01797
  516 Torsion                 14    32    54   114         170.09321   -0.03669
  517 Torsion                 33     9    75    46         -78.81589    0.11818
  518 Torsion                 33     9   108    45        -123.59543   -0.31921
  519 Torsion                 16     5    34    42        -178.86274   -0.00647
  520 Torsion                 34    42     8    65          -7.68966   -0.01168
  521 Torsion                 34    42     8    94         111.73307   -0.01926
  522 Torsion                 34    42     8   111        -122.17134   -0.01369
  523 Torsion                  8    74    34    42         176.21172    0.02550
  524 Torsion                 34    42    91    52          76.48920    0.07549
  525 Torsion                 35    12    66    55         -45.80601   -0.00064
  526 Torsion                 35    12    66    65        -169.75302    0.00411
  527 Torsion                 35    12    66   109          77.64145   -0.01199
  528 Torsion                 12    35   103    66        -175.05968   -0.07263
  529 Torsion                 12    35   104    48         178.49599    0.05416
  530 Torsion                 35   106    43   102        -139.64232    0.02232
  531 Torsion                 71    86    35   106         174.20338   -0.00670
  532 Torsion                 35   106    36    51        -107.92764   -0.00275
  533 Torsion                 35   106    36    92         132.38844    0.00739
  534 Torsion                 36    97    35   106         172.16788    0.00168
  535 Torsion                 36    51   110    44        -178.79416    0.06066
  536 Torsion                 36    51   110    47          58.75759    0.05751
  537 Torsion                 36    51   110   115         -56.60344    0.06272
  538 Torsion                 37    79   114    54         -40.83566    0.05523
  539 Torsion                 37    79   114    68        -164.35057    0.05799
  540 Torsion                 37    79   114    78          76.62212    0.05905
  541 Torsion                 31    53    38    46         174.59845   -0.00332
  542 Torsion                 38    46    95    58          58.83986   -0.06367
  543 Torsion                 52    38    20    72         176.21673    0.03349
  544 Torsion                 38    52    84   113        -106.55353    0.02462
  545 Torsion                 38    52    91    42          71.77683   -0.07612
  546 Torsion                 39    50    57    80         103.09001    0.00236
  547 Torsion                 50    39   101    69        -173.12919   -0.00486
  548 Torsion                 58    39    21    73         179.32215    0.01160
  549 Torsion                 39    58    95    46          93.25783    0.05681
  550 Torsion                 42    91    52    84         -46.40028   -0.07643
  551 Torsion                 71    86    43   106         178.74784    0.02280
  552 Torsion                 43   106    36    51           7.18092   -0.00367
  553 Torsion                 43   106    36    92        -112.50300    0.00647
  554 Torsion                 36    97    43   106        -176.11375   -0.03001
  555 Torsion                 44   110    37    79          46.37569    0.00605
  556 Torsion                 44   110    37    93         -77.83744   -0.00632
  557 Torsion                 37    47    44   110         178.30025   -0.01857
  558 Torsion                 45    59     6    88           1.49521    0.00892
  559 Torsion                 45    59     6   109        -119.75827   -0.00093
  560 Torsion                 45    62   116    63        -119.94483    0.07364
  561 Torsion                 45    62   116    89         122.59070    0.07906
  562 Torsion                 45   107    13   115         116.83142    0.25286
  563 Torsion                 45   108     9    75         119.01262   -0.31824
  564 Torsion                 45   108     9    98          -2.46960   -0.31000
  565 Torsion                 46    75     9    98         155.00440    0.10849
  566 Torsion                 46    75     9   108          38.48312    0.10881
  567 Torsion                 46    95    58    85         -25.80334    0.05209
  568 Torsion                 47    37    29    96        -106.45514   -0.01733
  569 Torsion                 47    37    79   114          71.56708   -0.03900
  570 Torsion                 37    47    93    67         176.20663   -0.00830
  571 Torsion                110    47    44   117         174.58079    0.03365
  572 Torsion                 49    78   114    54         -98.04064    0.00623
  573 Torsion                 49    78   114    68          23.45103    0.00154
  574 Torsion                 49    78   114    79         144.36275    0.00066
  575 Torsion                 51    36    28    87           2.49981    0.18897
  576 Torsion                 36    51    92    64        -177.56881    0.01296
  577 Torsion                 51    36   106    86         127.08545   -0.01243
  578 Torsion                 36    51    97   106         176.99742    0.02955
  579 Torsion                110    51    44   117        -178.10835   -0.02569
  580 Torsion                 51   110    37    79         170.21691    0.00440
  581 Torsion                 51   110    37    93          46.00378   -0.00797
  582 Torsion                 37    47    51   110         176.73751   -0.04538
  583 Torsion                 52    91    42    74         -40.96998    0.07648
  584 Torsion                 53    46    52    84         160.81413    0.00288
  585 Torsion                 53    46    52    91          46.39566    0.00647
  586 Torsion                 46    53    38    52         178.25107   -0.00330
  587 Torsion                 53    46    95    58        -178.71066   -0.05955
  588 Torsion                 14    54    27    40        -179.20559   -0.02471
  589 Torsion                 41    68    54   114         173.20427   -0.00203
  590 Torsion                 55    66    12   104          79.41355   -0.03979
  591 Torsion                 12   103    55    66        -178.45551   -0.01848
  592 Torsion                 56    88     6    59          37.15184   -0.04536
  593 Torsion                 56    88     6   109         156.20438   -0.04194
  594 Torsion                 57    50    58    85         121.64396    0.02580
  595 Torsion                 57    50    58    95           7.04956    0.02699
  596 Torsion                 50    57    39    58        -176.10391   -0.03693
  597 Torsion                 50    57   101    69         178.75072    0.00253
  598 Torsion                 58    95    46    75         -56.50465   -0.06356
  599 Torsion                 59     6    24    76         127.99817    0.08820
  600 Torsion                 59     6   109    66         -38.43385    0.11491
  601 Torsion                 59    45    62   116         -65.32322   -0.03175
  602 Torsion                 61     3    13   107        -129.13353    0.14745
  603 Torsion                 61     3    13   115         -10.77775    0.15207
  604 Torsion                 62   116    25    77          37.16122   -0.03115
  605 Torsion                 62   116    89   112         127.95556    0.20326
  606 Torsion                 15    63     4    70         175.90263    0.02495
  607 Torsion                 63    15    10    83          77.68905    0.04405
  608 Torsion                 10    26    63    15         173.13145    0.10463
  609 Torsion                 63   116    25    77         156.21474   -0.00831
  610 Torsion                 63   116    89   112           9.54846    0.19347
  611 Torsion                 65     8    42    91         107.38191   -0.00250
  612 Torsion                  8    65    74    42        -177.33158   -0.02687
  613 Torsion                  8    65    94    82         177.44059   -0.02412
  614 Torsion                 66    65    55   105         178.72643    0.00223
  615 Torsion                 65    66    12   104         -44.53347   -0.03505
  616 Torsion                 12   103    65    66        -174.86746   -0.06393
  617 Torsion                 66    65     8    74         -93.39421   -0.00537
  618 Torsion                 66    65     8    94         148.08462   -0.00624
  619 Torsion                 66    65     8   111          25.67966   -0.00144
  620 Torsion                 66   109     6    88        -154.84200    0.11060
  621 Torsion                 14    54    68   114         173.85488   -0.04837
  622 Torsion                  8    74    94    82        -179.20284   -0.02509
  623 Torsion                 16     5    74    42         173.20193    0.01469
  624 Torsion                 74    42    34   100         -98.14007    0.07590
  625 Torsion                 75     9    33    90         -10.94925   -0.00081
  626 Torsion                 75    46    52    84          37.52281    0.00549
  627 Torsion                 75    46    52    91         -76.89565    0.00908
  628 Torsion                 46    75    38    52        -174.85763    0.01870
  629 Torsion                 31    53    75    46        -176.32203    0.02394
  630 Torsion                 76    24     6    88        -116.02491    0.08227
  631 Torsion                 76    24     6   109           9.60746    0.09432
  632 Torsion                 77    25   116    89         -80.75899   -0.01782
  633 Torsion                 14    54    78   114         176.25965    0.00827
  634 Torsion                 41    68    78   114        -178.86099   -0.01203
  635 Torsion                 79    37    29    96          10.40541   -0.01839
  636 Torsion                 79    37   110   115         -76.90127   -0.00279
  637 Torsion                 37    79    47   110         177.09693   -0.04668
  638 Torsion                 37    79    93    67        -179.51121   -0.00851
  639 Torsion                 14    54    79   114        -170.57620    0.03750
  640 Torsion                 41    68    79   114        -174.18671    0.01400
  641 Torsion                 80    57    50    83        -139.50093    0.00357
  642 Torsion                 80    57    50   101         -18.56887    0.00472
  643 Torsion                 81     7    10    83         -10.78599   -0.03246
  644 Torsion                 10    83     1    60         178.50708    0.05636
  645 Torsion                 10    83    26    15        -174.95218   -0.08356
  646 Torsion                 83    50    58    85           6.54860    0.02892
  647 Torsion                 83    50    58    95        -108.04580    0.03011
  648 Torsion                 50    83    39    58         172.19540   -0.05734
  649 Torsion                 50    83   101    69         174.19610    0.00304
  650 Torsion                 52    84    20    72        -176.48107   -0.01359
  651 Torsion                 84    52    46    95         -75.34946    0.00554
  652 Torsion                 46    38    84    52         176.89889   -0.00836
  653 Torsion                 58    85    21    73         178.37829   -0.04457
  654 Torsion                 85    58    50   101        -118.44740    0.00551
  655 Torsion                 50    39    85    58        -171.70641    0.05444
  656 Torsion                 86   106    43   102         -18.71164    0.02571
  657 Torsion                 86   106    36    92           7.40153   -0.00229
  658 Torsion                 36    97    86   106        -175.68676    0.02698
  659 Torsion                 87    28    36    92         124.24704    0.18926
  660 Torsion                 87    28    36    97        -113.20310    0.19248
  661 Torsion                 90    33     9    98         114.99120   -0.00331
  662 Torsion                 90    33     9   108        -129.28472   -0.00009
  663 Torsion                 16     5    91    42        -174.18249   -0.00967
  664 Torsion                 91    42    34   100         144.26925    0.07456
  665 Torsion                 91    42     8    94        -133.19535   -0.01009
  666 Torsion                 91    42     8   111          -7.09976   -0.00451
  667 Torsion                  8    74    91    42        -170.57229   -0.00186
  668 Torsion                 52    91    20    72        -179.52670   -0.02238
  669 Torsion                 91    52    46    95         170.23208    0.00913
  670 Torsion                 46    38    91    52         177.09760   -0.01655
  671 Torsion                 91    52    84   113          10.31802    0.02356
  672 Torsion                 92    36    51   110        -148.07974   -0.06504
  673 Torsion                 36    92    97   106         174.87545   -0.02187
  674 Torsion                 93    37    29    96         131.44603   -0.01706
  675 Torsion                 93    37   110   115         158.88561   -0.01516
  676 Torsion                 37    93    47   110        -174.48415    0.07358
  677 Torsion                 93    37    79   114        -166.40297   -0.04016
  678 Torsion                  8    94    74    42        -172.98745    0.01886
  679 Torsion                 46    95    38    52         176.73505   -0.01531
  680 Torsion                 31    53    95    46        -178.11000   -0.02164
  681 Torsion                 58    95    21    73        -177.55374    0.03494
  682 Torsion                 95    58    50   101         126.95820    0.00670
  683 Torsion                 50    39    95    58         176.96914    0.04615
  684 Torsion                 97    36    51   110          93.38415   -0.06257
  685 Torsion                 36    97    92    64         179.33225    0.03830
  686 Torsion                 97   106    43   102         102.94086    0.02154
  687 Torsion                 71    86    97   106        -173.13289   -0.01635
  688 Torsion                 99    23    13   107         -34.71060   -0.10044
  689 Torsion                 99    23    13   115        -153.91489   -0.08356
  690 Torsion                 50   101    39    58        -175.72487    0.09760
  691 Torsion                103    12    35   106         -74.33673   -0.05632
  692 Torsion                 12   103   104    48        -175.81178   -0.03886
  693 Torsion                 66   103    55   105        -174.76249   -0.01393
  694 Torsion                104    12    35   106         163.03481   -0.04061
  695 Torsion                104    12    66   109        -157.13899   -0.05115
  696 Torsion                 12   104   103    66         172.07781    0.10186
  697 Torsion                107    13   115   110          39.02113   -0.02841
  698 Torsion                107    45    62   116         173.96508   -0.02665
  699 Torsion                108    45    62   116          55.32354   -0.03726
  700 Torsion                 66   109    55   105         175.91903    0.01189
  701 Torsion                 12   103   109    66         173.18857    0.08188
  702 Torsion                  8   111    74    42         170.08211    0.00508
  703 Torsion                  8   111    94    82        -178.39773    0.04804
  704 Torsion                110   115    44   117        -176.30430   -0.01147
  705 Torsion                 37    47   115   110        -174.90895    0.06391



                                NWChem Input Module
                                -------------------




                                     CITATION
                                     --------
                Please cite the following reference when publishing
                           results obtained with NWChem:

          E. Apra, E. J. Bylaska, W. A. de Jong, N. Govind, K. Kowalski,
       T. P. Straatsma, M. Valiev, H. J. J. van Dam, Y. Alexeev, J. Anchell,
       V. Anisimov, F. W. Aquino, R. Atta-Fynn, J. Autschbach, N. P. Bauman,
     J. C. Becca, D. E. Bernholdt, K. Bhaskaran-Nair, S. Bogatko, P. Borowski,
         J. Boschen, J. Brabec, A. Bruner, E. Cauet, Y. Chen, G. N. Chuev,
      C. J. Cramer, J. Daily, M. J. O. Deegan, T. H. Dunning Jr., M. Dupuis,
   K. G. Dyall, G. I. Fann, S. A. Fischer, A. Fonari, H. Fruchtl, L. Gagliardi,
      J. Garza, N. Gawande, S. Ghosh, K. Glaesemann, A. W. Gotz, J. Hammond,
       V. Helms, E. D. Hermes, K. Hirao, S. Hirata, M. Jacquelin, L. Jensen,
   B. G. Johnson, H. Jonsson, R. A. Kendall, M. Klemm, R. Kobayashi, V. Konkov,
      S. Krishnamoorthy, M. Krishnan, Z. Lin, R. D. Lins, R. J. Littlefield,
      A. J. Logsdail, K. Lopata, W. Ma, A. V. Marenich, J. Martin del Campo,
   D. Mejia-Rodriguez, J. E. Moore, J. M. Mullin, T. Nakajima, D. R. Nascimento,
    J. A. Nichols, P. J. Nichols, J. Nieplocha, A. Otero-de-la-Roza, B. Palmer,
    A. Panyala, T. Pirojsirikul, B. Peng, R. Peverati, J. Pittner, L. Pollack,
   R. M. Richard, P. Sadayappan, G. C. Schatz, W. A. Shelton, D. W. Silverstein,
   D. M. A. Smith, T. A. Soares, D. Song, M. Swart, H. L. Taylor, G. S. Thomas,
            V. Tipparaju, D. G. Truhlar, K. Tsemekhman, T. Van Voorhis,
      A. Vazquez-Mayagoitia, P. Verma, O. Villa, A. Vishnu, K. D. Vogiatzis,
        D. Wang, J. H. Weare, M. J. Williamson, T. L. Windus, K. Wolinski,
        A. T. Wong, Q. Wu, C. Yang, Q. Yu, M. Zacharias, Z. Zhang, Y. Zhao,
                                and R. J. Harrison
                        "NWChem: Past, present, and future
                         J. Chem. Phys. 152, 184102 (2020)
                               doi:10.1063/5.0004997

                                      AUTHORS
                                      -------
  E. Apra, E. J. Bylaska, N. Govind, K. Kowalski, M. Valiev, D. Mejia-Rodriguez,
       A. Kunitsa, N. P. Bauman, A. Panyala, W. A. de Jong, T. P. Straatsma,
   H. J. J. van Dam, D. Wang, T. L. Windus, J. Hammond, J. Autschbach, A. Woods,
    K. Bhaskaran-Nair, J. Brabec, K. Lopata, S. A. Fischer, S. Krishnamoorthy,
     M. Jacquelin, W. Ma, M. Klemm, O. Villa, Y. Chen, V. Anisimov, F. Aquino,
     S. Hirata, M. T. Hackler, E. Hermes, L. Jensen, J. E. Moore, J. C. Becca,
      V. Konjkov, T. Risthaus, M. Malagoli, A. Marenich, A. Otero-de-la-Roza,
        J. Mullin, P. Nichols, R. Peverati, J. Pittner, Y. Zhao, P.-D. Fan,
        A. Fonari, M. J. Williamson, R. J. Harrison, J. R. Rehr, M. Dupuis,
     D. Silverstein, D. M. A. Smith, J. Nieplocha, V. Tipparaju, M. Krishnan,
     B. E. Van Kuiken, A. Vazquez-Mayagoitia, M. Swart, Q. Wu, T. Van Voorhis,
     A. A. Auer, M. Nooijen, L. D. Crosby, E. Brown, G. Cisneros, G. I. Fann,
   H. Fruchtl, J. Garza, K. Hirao, R. A. Kendall, J. A. Nichols, K. Tsemekhman,
    K. Wolinski, J. Anchell, D. E. Bernholdt, P. Borowski, T. Clark, D. Clerc,
   H. Dachsel, M. J. O. Deegan, K. Dyall, D. Elwood, E. Glendening, M. Gutowski,
   A. C. Hess, J. Jaffe, B. G. Johnson, J. Ju, R. Kobayashi, R. Kutteh, Z. Lin,
   R. Littlefield, X. Long, B. Meng, T. Nakajima, S. Niu, L. Pollack, M. Rosing,
   K. Glaesemann, G. Sandrone, M. Stave, H. Taylor, G. Thomas, J. H. van Lenthe,
                               A. T. Wong, Z. Zhang.

 Total times  cpu:      745.6s     wall:      809.9s
