
  ___ ___ ___ _ _ _  
 |   |   |_  | | | | 
 | | | | | . | | | | 
 |__ |  _|___|_____|  23.6.1
 |___|_|             

User:   milias@lxi090
Date:   Sun Jul 30 14:02:36 2023
Arch:   x86_64
Pid:    39979
CWD:    /u/milias/Work/qch/projects/open-collection/theoretical_chemistry/software/ase/runs/gpaw-ase/Al_lattice_contant
Python: 3.7.3
gpaw:   /u/milias/.local/lib/python3.7/site-packages/gpaw
_gpaw:  /u/milias/.local/lib/python3.7/site-packages/
        _gpaw.cpython-37m-x86_64-linux-gnu.so
ase:    /u/milias/.local/lib/python3.7/site-packages/ase (version 3.22.1)
numpy:  /u/milias/.local/lib/python3.7/site-packages/numpy (version 1.21.6)
scipy:  /u/milias/.local/lib/python3.7/site-packages/scipy (version 1.7.3)
libxc:  4.2.3
units:  Angstrom and eV
cores: 1
OpenMP: False
OMP_NUM_THREADS: 1

Input parameters:
  kpts: [4 4 4]
  mode: {ecut: 300.0,
         name: pw}

System changes: positions, numbers, cell, pbc, initial_charges, initial_magmoms 

Initialize ...

species:
  Al:
    name: Aluminium
    id: 2e6447feaea722efcff26bf034b25f30
    Z: 13.0
    valence: 3
    core: 10
    charge: 0.0
    file: /u/milias/Work/qch/projects/open-collection/theoretical_chemistry/software/ase/servers/gsi_de/lx-pool_gsi_de/gpaw-setups-0.9.20000/Al.LDA.gz
    compensation charges: {type: gauss,
                           rc: 0.34,
                           lmax: 2}
    cutoffs: {filter: 1.91,
              core: 2.36}
    valence states:
      #              energy  rcut
      - 3s(2.00)    -7.830   1.085
      - 3p(1.00)    -2.783   1.085
      -  s          19.382   1.085
      -  p          24.428   1.085
      -  d           0.000   1.085
  
    # Using partial waves for Al as LCAO basis

Reference energy: -6578.421307  # eV

Spin-paired calculation

Convergence criteria:
 Maximum [total energy] change in last 3 cyles: 0.0005 eV / valence electron
 Maximum integral of absolute [dens]ity change: 0.0001 electrons / valence electron
 Maximum integral of absolute [eigenst]ate change: 4e-08 eV^2 / valence electron
 Maximum number of scf [iter]ations: 333
 (Square brackets indicate name in SCF output, whereas a 'c' in
 the SCF output indicates the quantity has converged.)

Symmetries present (total): 48

  ( 1  0  0)  ( 1  0  0)  ( 1  0  0)  ( 1  0  0)  ( 1  0 -1)  ( 1  0 -1)
  ( 1  0 -1)  ( 1 -1  0)  ( 0  1  0)  ( 0  0  1)  ( 1  0  0)  ( 1 -1  0)
  ( 1 -1  0)  ( 1  0 -1)  ( 0  0  1)  ( 0  1  0)  ( 1 -1  0)  ( 1  0  0)

  ( 1  0 -1)  ( 1  0 -1)  ( 1 -1  0)  ( 1 -1  0)  ( 1 -1  0)  ( 1 -1  0)
  ( 0  1 -1)  ( 0  0 -1)  ( 1  0  0)  ( 1  0 -1)  ( 0 -1  1)  ( 0 -1  0)
  ( 0  0 -1)  ( 0  1 -1)  ( 1  0 -1)  ( 1  0  0)  ( 0 -1  0)  ( 0 -1  1)

  ( 0  1  0)  ( 0  1  0)  ( 0  1  0)  ( 0  1  0)  ( 0  1 -1)  ( 0  1 -1)
  ( 1  0  0)  ( 0  1 -1)  ( 0  0  1)  (-1  1  0)  ( 1  0 -1)  ( 0  1  0)
  ( 0  0  1)  (-1  1  0)  ( 1  0  0)  ( 0  1 -1)  ( 0  0 -1)  (-1  1  0)

  ( 0  1 -1)  ( 0  1 -1)  ( 0  0  1)  ( 0  0  1)  ( 0  0  1)  ( 0  0  1)
  ( 0  0 -1)  (-1  1  0)  ( 1  0  0)  ( 0  1  0)  ( 0 -1  1)  (-1  0  1)
  ( 1  0 -1)  ( 0  1  0)  ( 0  1  0)  ( 1  0  0)  (-1  0  1)  ( 0 -1  1)

  ( 0  0 -1)  ( 0  0 -1)  ( 0  0 -1)  ( 0  0 -1)  ( 0 -1  1)  ( 0 -1  1)
  ( 1  0 -1)  ( 0  1 -1)  ( 0 -1  0)  (-1  0  0)  ( 1 -1  0)  ( 0  0  1)
  ( 0  1 -1)  ( 1  0 -1)  (-1  0  0)  ( 0 -1  0)  ( 0 -1  0)  (-1  0  1)

  ( 0 -1  1)  ( 0 -1  1)  ( 0 -1  0)  ( 0 -1  0)  ( 0 -1  0)  ( 0 -1  0)
  ( 0 -1  0)  (-1  0  1)  ( 1 -1  0)  ( 0  0 -1)  ( 0 -1  1)  (-1  0  0)
  ( 1 -1  0)  ( 0  0  1)  ( 0 -1  1)  (-1  0  0)  ( 1 -1  0)  ( 0  0 -1)

  (-1  1  0)  (-1  1  0)  (-1  1  0)  (-1  1  0)  (-1  0  1)  (-1  0  1)
  ( 0  1  0)  ( 0  1 -1)  (-1  0  1)  (-1  0  0)  ( 0  0  1)  ( 0 -1  1)
  ( 0  1 -1)  ( 0  1  0)  (-1  0  0)  (-1  0  1)  ( 0 -1  1)  ( 0  0  1)

  (-1  0  1)  (-1  0  1)  (-1  0  0)  (-1  0  0)  (-1  0  0)  (-1  0  0)
  (-1  1  0)  (-1  0  0)  ( 0  0 -1)  ( 0 -1  0)  (-1  1  0)  (-1  0  1)
  (-1  0  0)  (-1  1  0)  ( 0 -1  0)  ( 0  0 -1)  (-1  0  1)  (-1  1  0)
Note: your k-points are not as symmetric as your crystal!

64 k-points: 4 x 4 x 4 Monkhorst-Pack grid
10 k-points in the irreducible part of the Brillouin zone
       k-points in crystal coordinates                weights
   0:     0.12500000    0.12500000   -0.12500000          6/64
   1:     0.12500000    0.12500000    0.12500000          2/64
   2:     0.37500000   -0.12500000   -0.12500000          6/64
   3:     0.37500000    0.12500000   -0.37500000         12/64
   4:     0.37500000    0.12500000   -0.12500000         12/64
   5:     0.37500000    0.12500000    0.12500000          6/64
   6:     0.37500000    0.37500000   -0.37500000          6/64
   7:     0.37500000    0.37500000   -0.12500000          6/64
   8:     0.37500000    0.37500000    0.12500000          6/64
   9:     0.37500000    0.37500000    0.37500000          2/64

Wave functions: Plane wave expansion
  Cutoff energy: 300.000 eV
  Number of coefficients (min, max): 178, 199
  Pulay-stress correction: 0.000000 eV/Ang^3 (de/decut=0.000000)
  Using Numpy's FFT
  ScaLapack parameters: grid=1x1, blocksize=None
  Wavefunction extrapolation:
    Improved wavefunction reuse through dual PAW basis 

Occupation numbers: Fermi-Dirac:
  width: 0.1000  # eV
 

Eigensolver
   Davidson(niter=2) 

Densities:
  Coarse grid: 12*12*12 grid
  Fine grid: 24*24*24 grid
  Total Charge: 0.000000 

Density mixing:
  Method: separate
  Backend: pulay
  Linear mixing parameter: 0.05
  old densities: 5
  Damping of long wavelength oscillations: 50 

Hamiltonian:
  XC and Coulomb potentials evaluated on a 24*24*24 grid
  Using the LDA Exchange-Correlation functional
  External potential:
    NoExternalPotential
 

Memory estimate:
  Process memory now: 112.83 MiB
  Calculator: 1.38 MiB
    Density: 0.68 MiB
      Arrays: 0.34 MiB
      Localized functions: 0.21 MiB
      Mixer: 0.13 MiB
    Hamiltonian: 0.23 MiB
      Arrays: 0.22 MiB
      XC: 0.00 MiB
      Poisson: 0.00 MiB
      vbar: 0.00 MiB
    Wavefunctions: 0.46 MiB
      Arrays psit_nG: 0.12 MiB
      Eigensolver: 0.03 MiB
      Projections: 0.01 MiB
      Projectors: 0.21 MiB
      PW-descriptor: 0.10 MiB

Total number of cores used: 1

Number of atoms: 1
Number of atomic orbitals: 4
Number of bands in calculation: 4
Number of valence electrons: 3
Bands to converge: occupied

... initialized

Initializing position-dependent things.

Density initialized from atomic densities
Creating initial wave functions:
  4 bands from LCAO basis set

                
                
                
       Al       
                
                
                
                

Positions:
   0 Al     0.000000    0.000000    0.000000    ( 0.0000,  0.0000,  0.0000)

Unit cell:
           periodic     x           y           z      points  spacing
  1. axis:    yes    0.000000    2.025000    2.025000    12     0.1949
  2. axis:    yes    2.025000    0.000000    2.025000    12     0.1949
  3. axis:    yes    2.025000    2.025000    0.000000    12     0.1949

  Lengths:   2.863782   2.863782   2.863782
  Angles:   60.000000  60.000000  60.000000

Effective grid spacing dv^(1/3) = 0.2126

     iter     time        total  log10-change:
                         energy  eigst   dens
iter:   1 14:02:36    -4.125673
iter:   2 14:02:36    -4.126534  -2.67  -0.95
iter:   3 14:02:36    -4.124004  -2.74  -0.96
iter:   4 14:02:37    -4.122093  -3.99  -1.20
iter:   5 14:02:37    -4.122440  -5.38  -2.19
iter:   6 14:02:37    -4.122154c -5.07  -1.96
iter:   7 14:02:37    -4.122152c -7.09  -2.96
iter:   8 14:02:37    -4.122152c -8.69c -3.83
iter:   9 14:02:37    -4.122152c -9.18c -4.17c

Converged after 9 iterations.

Dipole moment: (0.000000, 0.000000, 0.000000) |e|*Ang

Energy contributions relative to reference atoms: (reference = -6578.421307)

Kinetic:         +3.894623
Potential:       -1.963145
External:        +0.000000
XC:              -6.032741
Entropy (-ST):   -0.031111
Local:           -0.005333
--------------------------
Free energy:     -4.137707
Extrapolated:    -4.122152

Showing only first 2 kpts
 Kpt  Band  Eigenvalues  Occupancy
  0     0     -2.62439    2.00000
  0     1     12.16457    0.00000
  0     2     15.63539    0.00000

  1     0     -3.74263    2.00000
  1     1     15.15180    0.00000
  1     2     18.45129    0.00000


Fermi level: 7.01898

No gap
Writing to Al-fcc.gpw (mode='')

Timing:                              incl.     excl.
-----------------------------------------------------------
Hamiltonian:                         0.017     0.000   0.0% |
 Atomic:                             0.013     0.001   0.0% |
  XC Correction:                     0.013     0.013   0.7% |
 Calculate atomic Hamiltonians:      0.000     0.000   0.0% |
 Communicate:                        0.000     0.000   0.0% |
 Initialize Hamiltonian:             0.000     0.000   0.0% |
 Poisson:                            0.000     0.000   0.0% |
 XC 3D grid:                         0.003     0.003   0.1% |
LCAO initialization:                 0.176     0.038   2.1% ||
 LCAO eigensolver:                   0.031     0.000   0.0% |
  Calculate projections:             0.000     0.000   0.0% |
  DenseAtomicCorrection:             0.001     0.001   0.0% |
  Distribute overlap matrix:         0.000     0.000   0.0% |
  Orbital Layouts:                   0.003     0.003   0.2% |
  Potential matrix:                  0.025     0.025   1.4% ||
  Sum over cells:                    0.002     0.002   0.1% |
 LCAO to grid:                       0.015     0.015   0.8% |
 Set positions (LCAO WFS):           0.092     0.007   0.4% |
  Basic WFS set positions:           0.003     0.003   0.2% |
  Basis functions set positions:     0.000     0.000   0.0% |
  P tci:                             0.010     0.010   0.5% |
  ST tci:                            0.043     0.043   2.3% ||
  mktci:                             0.029     0.029   1.6% ||
PWDescriptor:                        0.001     0.001   0.1% |
SCF-cycle:                           1.220     0.019   1.0% |
 Davidson:                           0.987     0.168   9.2% |---|
  Apply H:                           0.150     0.144   7.8% |--|
   HMM T:                            0.006     0.006   0.3% |
  Subspace diag:                     0.206     0.009   0.5% |
   calc_h_matrix:                    0.173     0.022   1.2% |
    Apply H:                         0.151     0.145   7.9% |--|
     HMM T:                          0.006     0.006   0.3% |
   diagonalize:                      0.014     0.014   0.8% |
   rotate_psi:                       0.010     0.010   0.6% |
  calc. matrices:                    0.424     0.133   7.2% |--|
   Apply H:                          0.291     0.280  15.2% |-----|
    HMM T:                           0.012     0.012   0.6% |
  diagonalize:                       0.025     0.025   1.4% ||
  rotate_psi:                        0.014     0.014   0.8% |
 Density:                            0.086     0.000   0.0% |
  Atomic density matrices:           0.006     0.006   0.3% |
  Mix:                               0.011     0.011   0.6% |
  Multipole moments:                 0.001     0.001   0.0% |
  Pseudo density:                    0.069     0.032   1.8% ||
   Symmetrize density:               0.037     0.037   2.0% ||
 Hamiltonian:                        0.124     0.003   0.1% |
  Atomic:                            0.098     0.004   0.2% |
   XC Correction:                    0.094     0.094   5.1% |-|
  Calculate atomic Hamiltonians:     0.003     0.003   0.2% |
  Communicate:                       0.000     0.000   0.0% |
  Poisson:                           0.001     0.001   0.0% |
  XC 3D grid:                        0.019     0.019   1.1% |
 Orthonormalize:                     0.004     0.001   0.0% |
  calc_s_matrix:                     0.001     0.001   0.1% |
  inverse-cholesky:                  0.001     0.001   0.0% |
  projections:                       0.001     0.001   0.1% |
  rotate_psi_s:                      0.000     0.000   0.0% |
Set symmetry:                        0.029     0.029   1.6% ||
Other:                               0.396     0.396  21.5% |--------|
-----------------------------------------------------------
Total:                                         1.839 100.0%

Date: Sun Jul 30 14:02:37 2023
